  python dir          : /gpfs/pace1/project/chbe-medford/medford-share/gits/frozen/ben_espresso_8_24_2017/espresso
  espresso dir        : /nv/hp22/amedford6/medford-shared/builds/espresso/5.1.r11289-pybeef/intel-16.0+mvapich2-2.2+mkl-11.3/espresso-5.1.r11289-pybeef/bin
  pseudo dir          : /gpfs/pace1/project/chbe-medford/medford-share/data/pseudos/SSSP_eff_PBE
  ase-espresso py git : GITVERSION



     Program PWSCF v.5.1rc2 starts on  9Feb2019 at 22:10: 5 

     This program is part of the open-source Quantum ESPRESSO suite
     for quantum simulation of materials; please cite
         "P. Giannozzi et al., J. Phys.:Condens. Matter 21 395502 (2009);
          URL http://www.quantum-espresso.org", 
     in publications or presentations arising from this work. More details at
     http://www.quantum-espresso.org/quote

     Parallel version (MPI), running on    12 processors
     R & G space division:  proc/nbgrp/npool/nimage =      12
     Reading input from pw.inp
     Message from routine read_cards :
     DEPRECATED: no units specified in CELL_PARAMETERS card

     Current dimensions of program PWSCF are:
     Max number of different atomic species (ntypx) = 10
     Max number of k-points (npk) =  40000
     Max angular momentum in pseudopotentials (lmaxx) =  3

     IMPORTANT: XC functional enforced from input :
     Exchange-correlation      = PBE ( 1  4  3  4 0)
     Any further DFT definition will be discarded
     Please, verify this is what you really want


     Subspace diagonalization in iterative solution of the eigenvalue problem:
     a serial algorithm will be used

 
     Parallelization info
     --------------------
     sticks:   dense  smooth     PW     G-vecs:    dense   smooth      PW
     Min         835     410    107               181752    62152    8417
     Max         837     411    108               181759    62171    8432
     Sum       10033    4927   1285              2181051   745939  101037
 


     bravais-lattice index     =            0
     lattice parameter (alat)  =       1.8897  a.u.
     unit-cell volume          =   21473.7007 (a.u.)^3
     number of atoms/cell      =           48
     number of atomic types    =            4
     number of electrons       =       558.00
     number of Kohn-Sham states=          289
     kinetic-energy cutoff     =      40.4243  Ry
     charge density cutoff     =     330.7439  Ry
     convergence threshold     =      7.3E-07
     mixing beta               =       0.2000
     number of iterations used =            8  local-TF  mixing
     Exchange-correlation      = PBE ( 1  4  3  4 0)
     nstep                     =           50


     celldm(1)=   1.889726  celldm(2)=   0.000000  celldm(3)=   0.000000
     celldm(4)=   0.000000  celldm(5)=   0.000000  celldm(6)=   0.000000

     crystal axes: (cart. coord. in units of alat)
               a(1) = (  11.099314   0.000000   0.000000 )  
               a(2) = (  -5.549657   9.612288   0.000000 )  
               a(3) = (   0.000000   0.000000  29.825478 )  

     reciprocal axes: (cart. coord. in units 2 pi/alat)
               b(1) = (  0.090096  0.052017  0.000000 )  
               b(2) = (  0.000000  0.104034  0.000000 )  
               b(3) = (  0.000000  0.000000  0.033528 )  


     PseudoPot. # 1 for Pt read from file:
     /gpfs/pace1/project/chbe-medford/medford-share/data/pseudos/SSSP_eff_PBE/Pt.UPF
     MD5 check sum: f09d6de1a584b5a045c4fc126da2d0c4
     Pseudo is Ultrasoft + core correction, Zval = 16.0
     Generated by new atomic code, or converted to UPF format
     Using radial grid of  985 points,  6 beta functions with: 
                l(1) =   0
                l(2) =   0
                l(3) =   1
                l(4) =   1
                l(5) =   2
                l(6) =   2
     Q(r) pseudized with  8 coefficients,  rinner =    1.300   1.300   1.300
                                                       1.300   1.300

     PseudoPot. # 2 for O  read from file:
     /gpfs/pace1/project/chbe-medford/medford-share/data/pseudos/SSSP_eff_PBE/O.UPF
     MD5 check sum: 734c27235a0248c51dbae37a1fbe46ec
     Pseudo is Ultrasoft + core correction, Zval =  6.0
     Generated by new atomic code, or converted to UPF format
     Using radial grid of  737 points,  5 beta functions with: 
                l(1) =   0
                l(2) =   0
                l(3) =   1
                l(4) =   1
                l(5) =   2
     Q(r) pseudized with  8 coefficients,  rinner =    0.900   0.900   0.900
                                                       0.900   0.900

     PseudoPot. # 3 for C  read from file:
     /gpfs/pace1/project/chbe-medford/medford-share/data/pseudos/SSSP_eff_PBE/C.UPF
     MD5 check sum: d1aef80898a10debaa0f26306b886e00
     Pseudo is Ultrasoft + core correction, Zval =  4.0
     Generated by new atomic code, or converted to UPF format
     Using radial grid of  721 points,  4 beta functions with: 
                l(1) =   0
                l(2) =   0
                l(3) =   1
                l(4) =   1
     Q(r) pseudized with  8 coefficients,  rinner =    1.100   1.100   1.100


     PseudoPot. # 4 for  H read from file:
     /gpfs/pace1/project/chbe-medford/medford-share/data/pseudos/SSSP_eff_PBE/H.UPF
     MD5 check sum: 36633979392af7100e6f6632747262d3
     Pseudo is Ultrasoft, Zval =  1.0
     Generated using "atomic" code by A. Dal Corso  v.5.0.99 svn rev. 10869
     Using radial grid of  929 points,  2 beta functions with: 
                l(1) =   0
                l(2) =   0
     Q(r) pseudized with 0 coefficients 


     atomic species   valence    mass     pseudopotential
        Pt1           16.00   195.08000     Pt( 1.00)
        O1             6.00    15.99940     O ( 1.00)
        C1             4.00    12.01100     C ( 1.00)
        H1             1.00     1.00794      H( 1.00)

     No symmetry found



   Cartesian axes

     site n.     atom                  positions (alat units)
         1           Pt1 tau(   1) = (   0.0000000   0.0000000  10.0000000  )
         2           Pt1 tau(   2) = (   1.3874142   0.8010240  12.2656379  )
         3           Pt1 tau(   3) = (  -1.3874142   2.4030719  10.0000000  )
         4           Pt1 tau(   4) = (   0.0000000   3.2040959  12.2656379  )
         5           Pt1 tau(   5) = (  -2.7748284   4.8061438  10.0000000  )
         6           Pt1 tau(   6) = (  -1.3874142   5.6071678  12.2656379  )
         7           Pt1 tau(   7) = (  -4.1622426   7.2092157  10.0000000  )
         8           Pt1 tau(   8) = (  -2.7748284   8.0102397  12.2656379  )
         9           Pt1 tau(   9) = (   2.7748284   0.0000000  10.0000000  )
        10           Pt1 tau(  10) = (   4.1622426   0.8010240  12.2656379  )
        11           Pt1 tau(  11) = (   1.3874142   2.4030719  10.0000000  )
        12           Pt1 tau(  12) = (   2.7748284   3.2040959  12.2656379  )
        13           Pt1 tau(  13) = (   0.0000000   4.8061438  10.0000000  )
        14           Pt1 tau(  14) = (   1.3874142   5.6071678  12.2656379  )
        15           Pt1 tau(  15) = (  -1.3874142   7.2092157  10.0000000  )
        16           Pt1 tau(  16) = (   0.0000000   8.0102397  12.2656379  )
        17           Pt1 tau(  17) = (   5.5496569   0.0000000  10.0000000  )
        18           Pt1 tau(  18) = (   6.9370711   0.8010240  12.2656379  )
        19           Pt1 tau(  19) = (   4.1622426   2.4030719  10.0000000  )
        20           Pt1 tau(  20) = (   5.5496569   3.2040959  12.2656379  )
        21           Pt1 tau(  21) = (   2.7748284   4.8061438  10.0000000  )
        22           Pt1 tau(  22) = (   4.1622426   5.6071678  12.2656379  )
        23           Pt1 tau(  23) = (   1.3874142   7.2092157  10.0000000  )
        24           Pt1 tau(  24) = (   2.7748284   8.0102397  12.2656379  )
        25           Pt1 tau(  25) = (   8.3244853   0.0000000  10.0000000  )
        26           Pt1 tau(  26) = (   9.7118995   0.8010240  12.2656379  )
        27           Pt1 tau(  27) = (   6.9370711   2.4030719  10.0000000  )
        28           Pt1 tau(  28) = (   8.3244853   3.2040959  12.2656379  )
        29           Pt1 tau(  29) = (   5.5496569   4.8061438  10.0000000  )
        30           Pt1 tau(  30) = (   6.9370711   5.6071678  12.2656379  )
        31           Pt1 tau(  31) = (   4.1622426   7.2092157  10.0000000  )
        32           Pt1 tau(  32) = (   5.5496569   8.0102397  12.2656379  )
        33           O1  tau(  33) = (   4.2132000   6.9788056  16.9173101  )
        34           O1  tau(  34) = (   4.1620000   2.4030000  14.7656379  )
        35           O1  tau(  35) = (   4.2129000   1.9578933  16.9921854  )
        36           C1  tau(  36) = (   4.1992000   4.6903101  17.6961005  )
        37           C1  tau(  37) = (   4.1943000   4.2692607  16.2301796  )
        38           C1  tau(  38) = (   4.1946000   6.1986773  17.8681320  )
        39           C1  tau(  39) = (   4.1611000   6.7043549  19.2870728  )
        40           C1  tau(  40) = (   4.1916000   2.7664018  16.0746075  )
        41           H1  tau(  41) = (   5.0895000   4.2946822  18.1981482  )
        42           H1  tau(  42) = (   3.3147000   4.2882707  18.2034532  )
        43           H1  tau(  43) = (   5.0831000   4.6640101  15.7248535  )
        44           H1  tau(  44) = (   3.3031000   4.6669197  15.7316140  )
        45           H1  tau(  45) = (   3.2484000   6.3576467  19.7779890  )
        46           H1  tau(  46) = (   5.0405000   6.3426997  19.8254778  )
        47           H1  tau(  47) = (   4.1706000   7.7978201  19.2895353  )
        48           H1  tau(  48) = (   4.1601000   1.4281262  14.6571689  )

     number of k points=     4  Fermi-Dirac smearing, width (Ry)=  0.0073
                       cart. coord. in units 2pi/alat
        k(    1) = (   0.0000000   0.0000000   0.0000000), wk =   0.5000000
        k(    2) = (   0.0000000  -0.0520168   0.0000000), wk =   0.5000000
        k(    3) = (   0.0450478  -0.0260084   0.0000000), wk =   0.5000000
        k(    4) = (  -0.0450478  -0.0260084   0.0000000), wk =   0.5000000

     Dense  grid:  2181051 G-vectors     FFT dimensions: ( 125, 125, 360)

     Smooth grid:   745939 G-vectors     FFT dimensions: (  90,  90, 240)

     Largest allocated arrays     est. size (Mb)     dimensions
        Kohn-Sham Wavefunctions        34.33 Mb     (    7786,  289)
        NL pseudopotentials            79.72 Mb     (    7786,  671)
        Each V/rho on FFT grid          7.15 Mb     (  468750)
        Each G-vector array             1.39 Mb     (  181759)
        G-vector shells                 0.46 Mb     (   59830)
     Largest temporary arrays     est. size (Mb)     dimensions
        Auxiliary wavefunctions       137.34 Mb     (    7786, 1156)
        Each subspace H/S matrix       20.39 Mb     (    1156, 1156)
        Each <psi_i|beta_j> matrix      2.96 Mb     (     671,  289)
        Arrays for rho mixing          57.22 Mb     (  468750,    8)

     Initial potential from superposition of free atoms
     Check: negative starting charge=   -5.909492

     starting charge  541.99935, renormalised to  558.00000

     negative rho (up, down):  6.084E+00 0.000E+00
     Starting wfc are  424 randomized atomic wfcs

     total cpu time spent up to now is       84.4 secs

     per-process dynamical memory:   376.5 Mb

     Self-consistent Calculation

     iteration #  1     ecut=    40.42 Ry     beta=0.20
     Davidson diagonalization with overlap
     ethr =  1.00E-02,  avg # of iterations =  2.0

     negative rho (up, down):  5.983E+00 0.000E+00

     total cpu time spent up to now is      248.6 secs

     total energy              =   -6910.53598668 Ry
     Harris-Foulkes estimate   =   -6915.38144009 Ry
     estimated scf accuracy    <      72.07367908 Ry

     iteration #  2     ecut=    40.42 Ry     beta=0.20
     Davidson diagonalization with overlap
     ethr =  1.00E-02,  avg # of iterations =  1.0

     negative rho (up, down):  5.859E+00 0.000E+00

     total cpu time spent up to now is      380.5 secs

     total energy              =   -6900.67760707 Ry
     Harris-Foulkes estimate   =   -6910.90629764 Ry
     estimated scf accuracy    <      50.21315268 Ry

     iteration #  3     ecut=    40.42 Ry     beta=0.20
     Davidson diagonalization with overlap
     ethr =  9.00E-03,  avg # of iterations =  4.5

     negative rho (up, down):  5.904E+00 0.000E+00

     total cpu time spent up to now is      529.0 secs

     total energy              =   -6904.66008242 Ry
     Harris-Foulkes estimate   =   -6904.92900315 Ry
     estimated scf accuracy    <       3.40127638 Ry

     iteration #  4     ecut=    40.42 Ry     beta=0.20
     Davidson diagonalization with overlap
     ethr =  6.10E-04,  avg # of iterations =  8.0

     negative rho (up, down):  5.919E+00 0.000E+00

     total cpu time spent up to now is      703.0 secs

     total energy              =   -6905.19910915 Ry
     Harris-Foulkes estimate   =   -6905.27581964 Ry
     estimated scf accuracy    <       5.60809244 Ry

     iteration #  5     ecut=    40.42 Ry     beta=0.20
     Davidson diagonalization with overlap
     ethr =  6.10E-04,  avg # of iterations =  1.0

     negative rho (up, down):  6.065E+00 0.000E+00

     total cpu time spent up to now is      840.4 secs

     total energy              =   -6904.55611164 Ry
     Harris-Foulkes estimate   =   -6905.21718079 Ry
     estimated scf accuracy    <       4.44933594 Ry

     iteration #  6     ecut=    40.42 Ry     beta=0.20
     Davidson diagonalization with overlap
     ethr =  6.10E-04,  avg # of iterations =  5.5

     negative rho (up, down):  6.059E+00 0.000E+00

     total cpu time spent up to now is      998.5 secs

     total energy              =   -6904.83461754 Ry
     Harris-Foulkes estimate   =   -6905.42149891 Ry
     estimated scf accuracy    <      12.64911691 Ry

     iteration #  7     ecut=    40.42 Ry     beta=0.20
     Davidson diagonalization with overlap
     ethr =  6.10E-04,  avg # of iterations =  1.8

     negative rho (up, down):  6.059E+00 0.000E+00

     total cpu time spent up to now is     1134.9 secs

     total energy              =   -6904.89338309 Ry
     Harris-Foulkes estimate   =   -6904.93381928 Ry
     estimated scf accuracy    <       7.18441826 Ry

     iteration #  8     ecut=    40.42 Ry     beta=0.20
     Davidson diagonalization with overlap
     ethr =  6.10E-04,  avg # of iterations =  1.0

     negative rho (up, down):  6.068E+00 0.000E+00

     total cpu time spent up to now is     1270.5 secs

     total energy              =   -6904.55136647 Ry
     Harris-Foulkes estimate   =   -6904.90367513 Ry
     estimated scf accuracy    <       6.56245840 Ry

     iteration #  9     ecut=    40.42 Ry     beta=0.20
     Davidson diagonalization with overlap
     ethr =  6.10E-04,  avg # of iterations =  6.0

     negative rho (up, down):  6.155E+00 0.000E+00

     total cpu time spent up to now is     1414.4 secs

     total energy              =   -6904.59508135 Ry
     Harris-Foulkes estimate   =   -6904.67749479 Ry
     estimated scf accuracy    <       1.50977823 Ry

     iteration # 10     ecut=    40.42 Ry     beta=0.20
     Davidson diagonalization with overlap
     ethr =  2.71E-04,  avg # of iterations =  7.2

     negative rho (up, down):  6.175E+00 0.000E+00

     total cpu time spent up to now is     1568.9 secs

     total energy              =   -6904.68439727 Ry
     Harris-Foulkes estimate   =   -6904.70114181 Ry
     estimated scf accuracy    <       0.55479591 Ry

     iteration # 11     ecut=    40.42 Ry     beta=0.20
     Davidson diagonalization with overlap
     ethr =  9.94E-05,  avg # of iterations =  1.5

     negative rho (up, down):  6.170E+00 0.000E+00

     total cpu time spent up to now is     1703.5 secs

     total energy              =   -6904.64901206 Ry
     Harris-Foulkes estimate   =   -6904.68926693 Ry
     estimated scf accuracy    <       0.42125184 Ry

     iteration # 12     ecut=    40.42 Ry     beta=0.20
     Davidson diagonalization with overlap
     ethr =  7.55E-05,  avg # of iterations =  1.2

     negative rho (up, down):  6.084E+00 0.000E+00

     total cpu time spent up to now is     1841.4 secs

     total energy              =   -6904.60478056 Ry
     Harris-Foulkes estimate   =   -6904.66134286 Ry
     estimated scf accuracy    <       0.29787019 Ry

     iteration # 13     ecut=    40.42 Ry     beta=0.20
     Davidson diagonalization with overlap
     ethr =  5.34E-05,  avg # of iterations =  9.0

     negative rho (up, down):  6.066E+00 0.000E+00

     total cpu time spent up to now is     1996.1 secs

     total energy              =   -6904.60519951 Ry
     Harris-Foulkes estimate   =   -6904.63221902 Ry
     estimated scf accuracy    <       0.46741500 Ry

     iteration # 14     ecut=    40.42 Ry     beta=0.20
     Davidson diagonalization with overlap
     ethr =  5.34E-05,  avg # of iterations =  1.0

     negative rho (up, down):  5.974E+00 0.000E+00

     total cpu time spent up to now is     2127.9 secs

     total energy              =   -6904.58855131 Ry
     Harris-Foulkes estimate   =   -6904.61378234 Ry
     estimated scf accuracy    <       0.16061385 Ry

     iteration # 15     ecut=    40.42 Ry     beta=0.20
     Davidson diagonalization with overlap
     ethr =  2.88E-05,  avg # of iterations =  6.2

     negative rho (up, down):  5.946E+00 0.000E+00

     total cpu time spent up to now is     2278.7 secs

     total energy              =   -6904.58139763 Ry
     Harris-Foulkes estimate   =   -6904.60759373 Ry
     estimated scf accuracy    <       0.33915987 Ry

     iteration # 16     ecut=    40.42 Ry     beta=0.20
     Davidson diagonalization with overlap
     ethr =  2.88E-05,  avg # of iterations =  5.0

     negative rho (up, down):  5.871E+00 0.000E+00

     total cpu time spent up to now is     2424.4 secs

     total energy              =   -6904.58093170 Ry
     Harris-Foulkes estimate   =   -6904.59337854 Ry
     estimated scf accuracy    <       0.05279195 Ry

     iteration # 17     ecut=    40.42 Ry     beta=0.20
     Davidson diagonalization with overlap
     ethr =  9.46E-06,  avg # of iterations =  2.5

     negative rho (up, down):  5.772E+00 0.000E+00

     total cpu time spent up to now is     2564.2 secs

     total energy              =   -6904.57433279 Ry
     Harris-Foulkes estimate   =   -6904.58328428 Ry
     estimated scf accuracy    <       0.02798619 Ry

     iteration # 18     ecut=    40.42 Ry     beta=0.20
     Davidson diagonalization with overlap
     ethr =  5.02E-06,  avg # of iterations =  4.2

     negative rho (up, down):  5.771E+00 0.000E+00

     total cpu time spent up to now is     2711.3 secs

     total energy              =   -6904.57611331 Ry
     Harris-Foulkes estimate   =   -6904.57706636 Ry
     estimated scf accuracy    <       0.02913427 Ry

     iteration # 19     ecut=    40.42 Ry     beta=0.20
     Davidson diagonalization with overlap
     ethr =  5.02E-06,  avg # of iterations =  1.0

     negative rho (up, down):  5.727E+00 0.000E+00

     total cpu time spent up to now is     2844.2 secs

     total energy              =   -6904.57281925 Ry
     Harris-Foulkes estimate   =   -6904.57663998 Ry
     estimated scf accuracy    <       0.01494274 Ry

     iteration # 20     ecut=    40.42 Ry     beta=0.20
     Davidson diagonalization with overlap
     ethr =  2.68E-06,  avg # of iterations =  8.2

     negative rho (up, down):  5.703E+00 0.000E+00

     total cpu time spent up to now is     3004.1 secs

     total energy              =   -6904.57164329 Ry
     Harris-Foulkes estimate   =   -6904.57480615 Ry
     estimated scf accuracy    <       0.03432004 Ry

     iteration # 21     ecut=    40.42 Ry     beta=0.20
     Davidson diagonalization with overlap
     ethr =  2.68E-06,  avg # of iterations =  2.0

     negative rho (up, down):  5.689E+00 0.000E+00

     total cpu time spent up to now is     3140.2 secs

     total energy              =   -6904.57060680 Ry
     Harris-Foulkes estimate   =   -6904.57221047 Ry
     estimated scf accuracy    <       0.00927184 Ry

     iteration # 22     ecut=    40.42 Ry     beta=0.20
     Davidson diagonalization with overlap
     ethr =  1.66E-06,  avg # of iterations =  9.0

     negative rho (up, down):  5.685E+00 0.000E+00

     total cpu time spent up to now is     3299.9 secs

     total energy              =   -6904.57110249 Ry
     Harris-Foulkes estimate   =   -6904.57144194 Ry
     estimated scf accuracy    <       0.00611853 Ry

     iteration # 23     ecut=    40.42 Ry     beta=0.20
     Davidson diagonalization with overlap
     ethr =  1.10E-06,  avg # of iterations =  1.0

     negative rho (up, down):  5.666E+00 0.000E+00

     total cpu time spent up to now is     3439.2 secs

     total energy              =   -6904.57026365 Ry
     Harris-Foulkes estimate   =   -6904.57115962 Ry
     estimated scf accuracy    <       0.00367548 Ry

     iteration # 24     ecut=    40.42 Ry     beta=0.20
     Davidson diagonalization with overlap
     ethr =  6.59E-07,  avg # of iterations =  8.8

     negative rho (up, down):  5.665E+00 0.000E+00

     total cpu time spent up to now is     3620.7 secs

     total energy              =   -6904.57086320 Ry
     Harris-Foulkes estimate   =   -6904.57156729 Ry
     estimated scf accuracy    <       0.01728528 Ry

     iteration # 25     ecut=    40.42 Ry     beta=0.20
     Davidson diagonalization with overlap
     ethr =  6.59E-07,  avg # of iterations =  1.0

     negative rho (up, down):  5.666E+00 0.000E+00

     total cpu time spent up to now is     3759.6 secs

     total energy              =   -6904.57059822 Ry
     Harris-Foulkes estimate   =   -6904.57100095 Ry
     estimated scf accuracy    <       0.00794171 Ry

     iteration # 26     ecut=    40.42 Ry     beta=0.20
     Davidson diagonalization with overlap
     ethr =  6.59E-07,  avg # of iterations =  2.5

     negative rho (up, down):  5.664E+00 0.000E+00

     total cpu time spent up to now is     3903.2 secs

     total energy              =   -6904.57050944 Ry
     Harris-Foulkes estimate   =   -6904.57073985 Ry
     estimated scf accuracy    <       0.00259768 Ry

     iteration # 27     ecut=    40.42 Ry     beta=0.20
     Davidson diagonalization with overlap
     ethr =  4.66E-07,  avg # of iterations =  8.2

     negative rho (up, down):  5.658E+00 0.000E+00

     total cpu time spent up to now is     4067.4 secs

     total energy              =   -6904.57105535 Ry
     Harris-Foulkes estimate   =   -6904.57116909 Ry
     estimated scf accuracy    <       0.00471752 Ry

     iteration # 28     ecut=    40.42 Ry     beta=0.20
     Davidson diagonalization with overlap
     ethr =  4.66E-07,  avg # of iterations =  1.0

     negative rho (up, down):  5.656E+00 0.000E+00

     total cpu time spent up to now is     4207.4 secs

     total energy              =   -6904.57091565 Ry
     Harris-Foulkes estimate   =   -6904.57110700 Ry
     estimated scf accuracy    <       0.00286411 Ry

     iteration # 29     ecut=    40.42 Ry     beta=0.20
     Davidson diagonalization with overlap
     ethr =  4.66E-07,  avg # of iterations =  1.0

     negative rho (up, down):  5.657E+00 0.000E+00

     total cpu time spent up to now is     4354.6 secs

     total energy              =   -6904.57087486 Ry
     Harris-Foulkes estimate   =   -6904.57098145 Ry
     estimated scf accuracy    <       0.00087008 Ry

     iteration # 30     ecut=    40.42 Ry     beta=0.20
     Davidson diagonalization with overlap
     ethr =  1.56E-07,  avg # of iterations =  9.5

     negative rho (up, down):  5.657E+00 0.000E+00

     total cpu time spent up to now is     4524.0 secs

     total energy              =   -6904.57102772 Ry
     Harris-Foulkes estimate   =   -6904.57107567 Ry
     estimated scf accuracy    <       0.00166746 Ry

     iteration # 31     ecut=    40.42 Ry     beta=0.20
     Davidson diagonalization with overlap
     ethr =  1.56E-07,  avg # of iterations =  3.0

     negative rho (up, down):  5.655E+00 0.000E+00

     total cpu time spent up to now is     4672.3 secs

     total energy              =   -6904.57083558 Ry
     Harris-Foulkes estimate   =   -6904.57105775 Ry
     estimated scf accuracy    <       0.00275475 Ry

     iteration # 32     ecut=    40.42 Ry     beta=0.20
     Davidson diagonalization with overlap
     ethr =  1.56E-07,  avg # of iterations =  1.0

     negative rho (up, down):  5.653E+00 0.000E+00

     total cpu time spent up to now is     4818.3 secs

     total energy              =   -6904.57082551 Ry
     Harris-Foulkes estimate   =   -6904.57089037 Ry
     estimated scf accuracy    <       0.00064619 Ry

     iteration # 33     ecut=    40.42 Ry     beta=0.20
     Davidson diagonalization with overlap
     c_bands:  1 eigenvalues not converged
     ethr =  1.16E-07,  avg # of iterations = 15.5

     negative rho (up, down):  5.653E+00 0.000E+00

     total cpu time spent up to now is     5012.8 secs

     total energy              =   -6904.57093221 Ry
     Harris-Foulkes estimate   =   -6904.57095979 Ry
     estimated scf accuracy    <       0.00072414 Ry

     iteration # 34     ecut=    40.42 Ry     beta=0.20
     Davidson diagonalization with overlap
     ethr =  1.16E-07,  avg # of iterations =  2.0

     negative rho (up, down):  5.655E+00 0.000E+00

     total cpu time spent up to now is     5156.0 secs

     total energy              =   -6904.57087442 Ry
     Harris-Foulkes estimate   =   -6904.57093634 Ry
     estimated scf accuracy    <       0.00059562 Ry

     iteration # 35     ecut=    40.42 Ry     beta=0.20
     Davidson diagonalization with overlap
     ethr =  1.07E-07,  avg # of iterations =  1.0

     negative rho (up, down):  5.656E+00 0.000E+00

     total cpu time spent up to now is     5300.9 secs

     total energy              =   -6904.57089665 Ry
     Harris-Foulkes estimate   =   -6904.57088974 Ry
     estimated scf accuracy    <       0.00022165 Ry

     iteration # 36     ecut=    40.42 Ry     beta=0.20
     Davidson diagonalization with overlap
     ethr =  3.97E-08,  avg # of iterations =  3.2

     negative rho (up, down):  5.658E+00 0.000E+00

     total cpu time spent up to now is     5446.5 secs

     total energy              =   -6904.57088424 Ry
     Harris-Foulkes estimate   =   -6904.57090017 Ry
     estimated scf accuracy    <       0.00028820 Ry

     iteration # 37     ecut=    40.42 Ry     beta=0.20
     Davidson diagonalization with overlap
     ethr =  3.97E-08,  avg # of iterations =  1.0

     negative rho (up, down):  5.658E+00 0.000E+00

     total cpu time spent up to now is     5586.4 secs

     total energy              =   -6904.57088379 Ry
     Harris-Foulkes estimate   =   -6904.57088567 Ry
     estimated scf accuracy    <       0.00021934 Ry

     iteration # 38     ecut=    40.42 Ry     beta=0.20
     Davidson diagonalization with overlap
     ethr =  3.93E-08,  avg # of iterations =  1.0

     negative rho (up, down):  5.660E+00 0.000E+00

     total cpu time spent up to now is     5729.2 secs

     total energy              =   -6904.57088523 Ry
     Harris-Foulkes estimate   =   -6904.57088506 Ry
     estimated scf accuracy    <       0.00022605 Ry

     iteration # 39     ecut=    40.42 Ry     beta=0.20
     Davidson diagonalization with overlap
     ethr =  3.93E-08,  avg # of iterations =  1.0

     negative rho (up, down):  5.659E+00 0.000E+00

     total cpu time spent up to now is     5881.5 secs

     total energy              =   -6904.57087923 Ry
     Harris-Foulkes estimate   =   -6904.57088646 Ry
     estimated scf accuracy    <       0.00022842 Ry

     iteration # 40     ecut=    40.42 Ry     beta=0.20
     Davidson diagonalization with overlap
     ethr =  3.93E-08,  avg # of iterations =  5.5

     negative rho (up, down):  5.659E+00 0.000E+00

     total cpu time spent up to now is     6040.2 secs

     total energy              =   -6904.57088415 Ry
     Harris-Foulkes estimate   =   -6904.57088485 Ry
     estimated scf accuracy    <       0.00014941 Ry

     iteration # 41     ecut=    40.42 Ry     beta=0.20
     Davidson diagonalization with overlap
     c_bands:  2 eigenvalues not converged
     ethr =  2.68E-08,  avg # of iterations =  5.8

     negative rho (up, down):  5.660E+00 0.000E+00

     total cpu time spent up to now is     6195.8 secs

     total energy              =   -6904.57089618 Ry
     Harris-Foulkes estimate   =   -6904.57088893 Ry
     estimated scf accuracy    <       0.00014617 Ry

     iteration # 42     ecut=    40.42 Ry     beta=0.20
     Davidson diagonalization with overlap
     ethr =  2.62E-08,  avg # of iterations =  8.5

     negative rho (up, down):  5.658E+00 0.000E+00

     total cpu time spent up to now is     6368.9 secs

     total energy              =   -6904.57088652 Ry
     Harris-Foulkes estimate   =   -6904.57092066 Ry
     estimated scf accuracy    <       0.00044909 Ry

     iteration # 43     ecut=    40.42 Ry     beta=0.20
     Davidson diagonalization with overlap
     ethr =  2.62E-08,  avg # of iterations =  1.0

     negative rho (up, down):  5.658E+00 0.000E+00

     total cpu time spent up to now is     6513.7 secs

     total energy              =   -6904.57084874 Ry
     Harris-Foulkes estimate   =   -6904.57089009 Ry
     estimated scf accuracy    <       0.00026389 Ry

     iteration # 44     ecut=    40.42 Ry     beta=0.20
     Davidson diagonalization with overlap
     ethr =  2.62E-08,  avg # of iterations =  9.0

     negative rho (up, down):  5.657E+00 0.000E+00

     total cpu time spent up to now is     6688.4 secs

     total energy              =   -6904.57090975 Ry
     Harris-Foulkes estimate   =   -6904.57091184 Ry
     estimated scf accuracy    <       0.00042509 Ry

     iteration # 45     ecut=    40.42 Ry     beta=0.20
     Davidson diagonalization with overlap
     ethr =  2.62E-08,  avg # of iterations =  1.0

     negative rho (up, down):  5.657E+00 0.000E+00

     total cpu time spent up to now is     6838.7 secs

     total energy              =   -6904.57088832 Ry
     Harris-Foulkes estimate   =   -6904.57091034 Ry
     estimated scf accuracy    <       0.00039586 Ry

     iteration # 46     ecut=    40.42 Ry     beta=0.20
     Davidson diagonalization with overlap
     ethr =  2.62E-08,  avg # of iterations =  2.0

     negative rho (up, down):  5.657E+00 0.000E+00

     total cpu time spent up to now is     6987.6 secs

     total energy              =   -6904.57088767 Ry
     Harris-Foulkes estimate   =   -6904.57089136 Ry
     estimated scf accuracy    <       0.00023390 Ry

     iteration # 47     ecut=    40.42 Ry     beta=0.20
     Davidson diagonalization with overlap
     ethr =  2.62E-08,  avg # of iterations =  1.0

     negative rho (up, down):  5.657E+00 0.000E+00

     total cpu time spent up to now is     7131.6 secs

     total energy              =   -6904.57088128 Ry
     Harris-Foulkes estimate   =   -6904.57088823 Ry
     estimated scf accuracy    <       0.00020537 Ry

     iteration # 48     ecut=    40.42 Ry     beta=0.20
     Davidson diagonalization with overlap
     ethr =  2.62E-08,  avg # of iterations =  1.0

     negative rho (up, down):  5.656E+00 0.000E+00

     total cpu time spent up to now is     7282.4 secs

     total energy              =   -6904.57087571 Ry
     Harris-Foulkes estimate   =   -6904.57088223 Ry
     estimated scf accuracy    <       0.00015717 Ry

     iteration # 49     ecut=    40.42 Ry     beta=0.20
     Davidson diagonalization with overlap
     ethr =  2.62E-08,  avg # of iterations =  1.0

     negative rho (up, down):  5.657E+00 0.000E+00

     total cpu time spent up to now is     7424.4 secs

     total energy              =   -6904.57088274 Ry
     Harris-Foulkes estimate   =   -6904.57087721 Ry
     estimated scf accuracy    <       0.00009929 Ry

     iteration # 50     ecut=    40.42 Ry     beta=0.20
     Davidson diagonalization with overlap
     ethr =  1.78E-08,  avg # of iterations =  1.0

     negative rho (up, down):  5.657E+00 0.000E+00

     total cpu time spent up to now is     7566.5 secs

     total energy              =   -6904.57089113 Ry
     Harris-Foulkes estimate   =   -6904.57088491 Ry
     estimated scf accuracy    <       0.00016940 Ry

     iteration # 51     ecut=    40.42 Ry     beta=0.20
     Davidson diagonalization with overlap
     ethr =  1.78E-08,  avg # of iterations =  1.0

     negative rho (up, down):  5.658E+00 0.000E+00

     total cpu time spent up to now is     7719.0 secs

     total energy              =   -6904.57089586 Ry
     Harris-Foulkes estimate   =   -6904.57089200 Ry
     estimated scf accuracy    <       0.00023103 Ry

     iteration # 52     ecut=    40.42 Ry     beta=0.20
     Davidson diagonalization with overlap
     ethr =  1.78E-08,  avg # of iterations =  1.0

     negative rho (up, down):  5.657E+00 0.000E+00

     total cpu time spent up to now is     7863.9 secs

     total energy              =   -6904.57083934 Ry
     Harris-Foulkes estimate   =   -6904.57089635 Ry
     estimated scf accuracy    <       0.00026765 Ry

     iteration # 53     ecut=    40.42 Ry     beta=0.20
     Davidson diagonalization with overlap
     ethr =  1.78E-08,  avg # of iterations =  8.5

     negative rho (up, down):  5.658E+00 0.000E+00

     total cpu time spent up to now is     8067.0 secs

     total energy              =   -6904.57081848 Ry
     Harris-Foulkes estimate   =   -6904.57094912 Ry
     estimated scf accuracy    <       0.00087644 Ry

     iteration # 54     ecut=    40.42 Ry     beta=0.20
     Davidson diagonalization with overlap
     ethr =  1.78E-08,  avg # of iterations =  8.5

     negative rho (up, down):  5.659E+00 0.000E+00

     total cpu time spent up to now is     8277.4 secs

     total energy              =   -6904.57088551 Ry
     Harris-Foulkes estimate   =   -6904.57089075 Ry
     estimated scf accuracy    <       0.00022452 Ry

     iteration # 55     ecut=    40.42 Ry     beta=0.20
     Davidson diagonalization with overlap
     ethr =  1.78E-08,  avg # of iterations =  1.0

     negative rho (up, down):  5.660E+00 0.000E+00

     total cpu time spent up to now is     8423.6 secs

     total energy              =   -6904.57085742 Ry
     Harris-Foulkes estimate   =   -6904.57088573 Ry
     estimated scf accuracy    <       0.00021004 Ry

     iteration # 56     ecut=    40.42 Ry     beta=0.20
     Davidson diagonalization with overlap
     c_bands:  1 eigenvalues not converged
     c_bands:  1 eigenvalues not converged
     c_bands:  1 eigenvalues not converged
     ethr =  1.78E-08,  avg # of iterations = 15.8

     negative rho (up, down):  5.660E+00 0.000E+00

     total cpu time spent up to now is     8605.0 secs

     total energy              =   -6904.57087723 Ry
     Harris-Foulkes estimate   =   -6904.57087736 Ry
     estimated scf accuracy    <       0.00014244 Ry

     iteration # 57     ecut=    40.42 Ry     beta=0.20
     Davidson diagonalization with overlap
     ethr =  1.78E-08,  avg # of iterations =  1.8

     negative rho (up, down):  5.660E+00 0.000E+00

     total cpu time spent up to now is     8750.5 secs

     total energy              =   -6904.57087824 Ry
     Harris-Foulkes estimate   =   -6904.57087751 Ry
     estimated scf accuracy    <       0.00014101 Ry

     iteration # 58     ecut=    40.42 Ry     beta=0.20
     Davidson diagonalization with overlap
     ethr =  1.78E-08,  avg # of iterations =  1.0

     negative rho (up, down):  5.660E+00 0.000E+00

     total cpu time spent up to now is     8890.3 secs

     total energy              =   -6904.57087310 Ry
     Harris-Foulkes estimate   =   -6904.57087837 Ry
     estimated scf accuracy    <       0.00015244 Ry

     iteration # 59     ecut=    40.42 Ry     beta=0.20
     Davidson diagonalization with overlap
     ethr =  1.78E-08,  avg # of iterations =  1.0

     negative rho (up, down):  5.660E+00 0.000E+00

     total cpu time spent up to now is     9036.6 secs

     total energy              =   -6904.57088073 Ry
     Harris-Foulkes estimate   =   -6904.57087341 Ry
     estimated scf accuracy    <       0.00011979 Ry

     iteration # 60     ecut=    40.42 Ry     beta=0.20
     Davidson diagonalization with overlap
     ethr =  1.78E-08,  avg # of iterations =  1.0

     negative rho (up, down):  5.660E+00 0.000E+00

     total cpu time spent up to now is     9176.6 secs

     total energy              =   -6904.57088223 Ry
     Harris-Foulkes estimate   =   -6904.57088139 Ry
     estimated scf accuracy    <       0.00017428 Ry

     iteration # 61     ecut=    40.42 Ry     beta=0.20
     Davidson diagonalization with overlap
     ethr =  1.78E-08,  avg # of iterations =  1.0

     negative rho (up, down):  5.660E+00 0.000E+00

     total cpu time spent up to now is     9324.3 secs

     total energy              =   -6904.57088610 Ry
     Harris-Foulkes estimate   =   -6904.57088231 Ry
     estimated scf accuracy    <       0.00018197 Ry

     iteration # 62     ecut=    40.42 Ry     beta=0.20
     Davidson diagonalization with overlap
     ethr =  1.78E-08,  avg # of iterations =  1.0

     negative rho (up, down):  5.660E+00 0.000E+00

     total cpu time spent up to now is     9467.4 secs

     total energy              =   -6904.57089040 Ry
     Harris-Foulkes estimate   =   -6904.57088635 Ry
     estimated scf accuracy    <       0.00021205 Ry

     iteration # 63     ecut=    40.42 Ry     beta=0.20
     Davidson diagonalization with overlap
     ethr =  1.78E-08,  avg # of iterations =  1.0

     negative rho (up, down):  5.660E+00 0.000E+00

     total cpu time spent up to now is     9613.8 secs

     total energy              =   -6904.57088595 Ry
     Harris-Foulkes estimate   =   -6904.57089068 Ry
     estimated scf accuracy    <       0.00024720 Ry

     iteration # 64     ecut=    40.42 Ry     beta=0.20
     Davidson diagonalization with overlap
     ethr =  1.78E-08,  avg # of iterations =  1.0

     negative rho (up, down):  5.659E+00 0.000E+00

     total cpu time spent up to now is     9758.4 secs

     total energy              =   -6904.57083393 Ry
     Harris-Foulkes estimate   =   -6904.57088616 Ry
     estimated scf accuracy    <       0.00022893 Ry

     iteration # 65     ecut=    40.42 Ry     beta=0.20
     Davidson diagonalization with overlap
     ethr =  1.78E-08,  avg # of iterations =  8.8

     negative rho (up, down):  5.660E+00 0.000E+00

     total cpu time spent up to now is     9962.2 secs

     total energy              =   -6904.57085720 Ry
     Harris-Foulkes estimate   =   -6904.57091018 Ry
     estimated scf accuracy    <       0.00045433 Ry

     iteration # 66     ecut=    40.42 Ry     beta=0.20
     Davidson diagonalization with overlap
     ethr =  1.78E-08,  avg # of iterations = 13.5

     negative rho (up, down):  5.660E+00 0.000E+00

     total cpu time spent up to now is    10148.3 secs

     total energy              =   -6904.57087170 Ry
     Harris-Foulkes estimate   =   -6904.57087165 Ry
     estimated scf accuracy    <       0.00007946 Ry

     iteration # 67     ecut=    40.42 Ry     beta=0.20
     Davidson diagonalization with overlap
     ethr =  1.42E-08,  avg # of iterations =  1.0

     negative rho (up, down):  5.660E+00 0.000E+00

     total cpu time spent up to now is    10301.2 secs

     total energy              =   -6904.57087157 Ry
     Harris-Foulkes estimate   =   -6904.57087205 Ry
     estimated scf accuracy    <       0.00007982 Ry

     iteration # 68     ecut=    40.42 Ry     beta=0.20
     Davidson diagonalization with overlap
     ethr =  1.42E-08,  avg # of iterations =  1.0

     negative rho (up, down):  5.660E+00 0.000E+00

     total cpu time spent up to now is    10454.0 secs

     total energy              =   -6904.57087259 Ry
     Harris-Foulkes estimate   =   -6904.57087166 Ry
     estimated scf accuracy    <       0.00007679 Ry

     iteration # 69     ecut=    40.42 Ry     beta=0.20
     Davidson diagonalization with overlap
     ethr =  1.38E-08,  avg # of iterations =  1.0

     negative rho (up, down):  5.660E+00 0.000E+00

     total cpu time spent up to now is    10608.2 secs

     total energy              =   -6904.57087219 Ry
     Harris-Foulkes estimate   =   -6904.57087267 Ry
     estimated scf accuracy    <       0.00008203 Ry

     iteration # 70     ecut=    40.42 Ry     beta=0.20
     Davidson diagonalization with overlap
     ethr =  1.38E-08,  avg # of iterations =  1.0

     negative rho (up, down):  5.660E+00 0.000E+00

     total cpu time spent up to now is    10762.6 secs

     total energy              =   -6904.57087196 Ry
     Harris-Foulkes estimate   =   -6904.57087222 Ry
     estimated scf accuracy    <       0.00007930 Ry

     iteration # 71     ecut=    40.42 Ry     beta=0.20
     Davidson diagonalization with overlap
     ethr =  1.38E-08,  avg # of iterations =  1.0

     negative rho (up, down):  5.660E+00 0.000E+00

     total cpu time spent up to now is    10917.2 secs

     total energy              =   -6904.57087128 Ry
     Harris-Foulkes estimate   =   -6904.57087198 Ry
     estimated scf accuracy    <       0.00007818 Ry

     iteration # 72     ecut=    40.42 Ry     beta=0.20
     Davidson diagonalization with overlap
     ethr =  1.38E-08,  avg # of iterations =  1.0

     negative rho (up, down):  5.660E+00 0.000E+00

     total cpu time spent up to now is    11074.6 secs

     total energy              =   -6904.57087105 Ry
     Harris-Foulkes estimate   =   -6904.57087148 Ry
     estimated scf accuracy    <       0.00007875 Ry

     iteration # 73     ecut=    40.42 Ry     beta=0.20
     Davidson diagonalization with overlap
     ethr =  1.38E-08,  avg # of iterations =  1.0

     negative rho (up, down):  5.660E+00 0.000E+00

     total cpu time spent up to now is    11225.0 secs

     total energy              =   -6904.57086915 Ry
     Harris-Foulkes estimate   =   -6904.57087109 Ry
     estimated scf accuracy    <       0.00007684 Ry

     iteration # 74     ecut=    40.42 Ry     beta=0.20
     Davidson diagonalization with overlap
     ethr =  1.38E-08,  avg # of iterations =  9.2

     negative rho (up, down):  5.659E+00 0.000E+00

     total cpu time spent up to now is    11421.5 secs

     total energy              =   -6904.57078080 Ry
     Harris-Foulkes estimate   =   -6904.57092507 Ry
     estimated scf accuracy    <       0.00078316 Ry

     iteration # 75     ecut=    40.42 Ry     beta=0.20
     Davidson diagonalization with overlap
     ethr =  1.38E-08,  avg # of iterations =  8.5

     negative rho (up, down):  5.660E+00 0.000E+00

     total cpu time spent up to now is    11648.9 secs

     total energy              =   -6904.57083591 Ry
     Harris-Foulkes estimate   =   -6904.57092250 Ry
     estimated scf accuracy    <       0.00056679 Ry

     iteration # 76     ecut=    40.42 Ry     beta=0.20
     Davidson diagonalization with overlap
     ethr =  1.38E-08,  avg # of iterations =  9.2

     negative rho (up, down):  5.660E+00 0.000E+00

     total cpu time spent up to now is    11865.8 secs

     total energy              =   -6904.57086422 Ry
     Harris-Foulkes estimate   =   -6904.57087567 Ry
     estimated scf accuracy    <       0.00016052 Ry

     iteration # 77     ecut=    40.42 Ry     beta=0.20
     Davidson diagonalization with overlap
     ethr =  1.38E-08,  avg # of iterations =  1.0

     negative rho (up, down):  5.660E+00 0.000E+00

     total cpu time spent up to now is    12022.1 secs

     total energy              =   -6904.57086310 Ry
     Harris-Foulkes estimate   =   -6904.57086552 Ry
     estimated scf accuracy    <       0.00008704 Ry

     iteration # 78     ecut=    40.42 Ry     beta=0.20
     Davidson diagonalization with overlap
     ethr =  1.38E-08,  avg # of iterations =  1.0

     negative rho (up, down):  5.660E+00 0.000E+00

     total cpu time spent up to now is    12176.1 secs

     total energy              =   -6904.57086488 Ry
     Harris-Foulkes estimate   =   -6904.57086339 Ry
     estimated scf accuracy    <       0.00006863 Ry

     iteration # 79     ecut=    40.42 Ry     beta=0.20
     Davidson diagonalization with overlap
     ethr =  1.23E-08,  avg # of iterations =  1.0

     negative rho (up, down):  5.660E+00 0.000E+00

     total cpu time spent up to now is    12330.0 secs

     total energy              =   -6904.57086415 Ry
     Harris-Foulkes estimate   =   -6904.57086498 Ry
     estimated scf accuracy    <       0.00007516 Ry

     iteration # 80     ecut=    40.42 Ry     beta=0.20
     Davidson diagonalization with overlap
     ethr =  1.23E-08,  avg # of iterations =  1.0

     negative rho (up, down):  5.660E+00 0.000E+00

     total cpu time spent up to now is    12488.6 secs

     total energy              =   -6904.57085953 Ry
     Harris-Foulkes estimate   =   -6904.57086421 Ry
     estimated scf accuracy    <       0.00006807 Ry

     iteration # 81     ecut=    40.42 Ry     beta=0.20
     Davidson diagonalization with overlap
     ethr =  1.22E-08,  avg # of iterations =  1.0

     negative rho (up, down):  5.660E+00 0.000E+00

     total cpu time spent up to now is    12653.0 secs

     total energy              =   -6904.57086048 Ry
     Harris-Foulkes estimate   =   -6904.57086019 Ry
     estimated scf accuracy    <       0.00003607 Ry

     iteration # 82     ecut=    40.42 Ry     beta=0.20
     Davidson diagonalization with overlap
     c_bands:  2 eigenvalues not converged
     ethr =  6.46E-09,  avg # of iterations =  5.8

     negative rho (up, down):  5.660E+00 0.000E+00

     total cpu time spent up to now is    12823.9 secs

     total energy              =   -6904.57086470 Ry
     Harris-Foulkes estimate   =   -6904.57086526 Ry
     estimated scf accuracy    <       0.00007312 Ry

     iteration # 83     ecut=    40.42 Ry     beta=0.20
     Davidson diagonalization with overlap
     ethr =  6.46E-09,  avg # of iterations = 12.8

     negative rho (up, down):  5.660E+00 0.000E+00

     total cpu time spent up to now is    13012.9 secs

     total energy              =   -6904.57087545 Ry
     Harris-Foulkes estimate   =   -6904.57088320 Ry
     estimated scf accuracy    <       0.00021447 Ry

     iteration # 84     ecut=    40.42 Ry     beta=0.20
     Davidson diagonalization with overlap
     ethr =  6.46E-09,  avg # of iterations =  1.0

     negative rho (up, down):  5.660E+00 0.000E+00

     total cpu time spent up to now is    13168.5 secs

     total energy              =   -6904.57086564 Ry
     Harris-Foulkes estimate   =   -6904.57087584 Ry
     estimated scf accuracy    <       0.00016680 Ry

     iteration # 85     ecut=    40.42 Ry     beta=0.20
     Davidson diagonalization with overlap
     c_bands:  1 eigenvalues not converged
     c_bands:  1 eigenvalues not converged
     ethr =  6.46E-09,  avg # of iterations = 10.5

     negative rho (up, down):  5.660E+00 0.000E+00

     total cpu time spent up to now is    13348.3 secs

     total energy              =   -6904.57086811 Ry
     Harris-Foulkes estimate   =   -6904.57086900 Ry
     estimated scf accuracy    <       0.00006359 Ry

     iteration # 86     ecut=    40.42 Ry     beta=0.20
     Davidson diagonalization with overlap
     ethr =  6.46E-09,  avg # of iterations =  1.0

     negative rho (up, down):  5.660E+00 0.000E+00

     total cpu time spent up to now is    13510.2 secs

     total energy              =   -6904.57087004 Ry
     Harris-Foulkes estimate   =   -6904.57086826 Ry
     estimated scf accuracy    <       0.00005819 Ry

     iteration # 87     ecut=    40.42 Ry     beta=0.20
     Davidson diagonalization with overlap
     ethr =  6.46E-09,  avg # of iterations =  1.0

     negative rho (up, down):  5.660E+00 0.000E+00

     total cpu time spent up to now is    13665.0 secs

     total energy              =   -6904.57087011 Ry
     Harris-Foulkes estimate   =   -6904.57087029 Ry
     estimated scf accuracy    <       0.00006942 Ry

     iteration # 88     ecut=    40.42 Ry     beta=0.20
     Davidson diagonalization with overlap
     ethr =  6.46E-09,  avg # of iterations =  1.0

     negative rho (up, down):  5.660E+00 0.000E+00

     total cpu time spent up to now is    13823.7 secs

     total energy              =   -6904.57087178 Ry
     Harris-Foulkes estimate   =   -6904.57087012 Ry
     estimated scf accuracy    <       0.00006885 Ry

     iteration # 89     ecut=    40.42 Ry     beta=0.20
     Davidson diagonalization with overlap
     ethr =  6.46E-09,  avg # of iterations =  1.0

     negative rho (up, down):  5.660E+00 0.000E+00

     total cpu time spent up to now is    13979.1 secs

     total energy              =   -6904.57086856 Ry
     Harris-Foulkes estimate   =   -6904.57087192 Ry
     estimated scf accuracy    <       0.00008143 Ry

     iteration # 90     ecut=    40.42 Ry     beta=0.20
     Davidson diagonalization with overlap
     ethr =  6.46E-09,  avg # of iterations =  5.5

     negative rho (up, down):  5.660E+00 0.000E+00

     total cpu time spent up to now is    14158.3 secs

     total energy              =   -6904.57086993 Ry
     Harris-Foulkes estimate   =   -6904.57086999 Ry
     estimated scf accuracy    <       0.00004116 Ry

     iteration # 91     ecut=    40.42 Ry     beta=0.20
     Davidson diagonalization with overlap
     ethr =  6.46E-09,  avg # of iterations =  9.0

     negative rho (up, down):  5.660E+00 0.000E+00

     total cpu time spent up to now is    14351.6 secs

     total energy              =   -6904.57087129 Ry
     Harris-Foulkes estimate   =   -6904.57089250 Ry
     estimated scf accuracy    <       0.00043217 Ry

     iteration # 92     ecut=    40.42 Ry     beta=0.20
     Davidson diagonalization with overlap
     ethr =  6.46E-09,  avg # of iterations =  1.2

     negative rho (up, down):  5.660E+00 0.000E+00

     total cpu time spent up to now is    14516.0 secs

     total energy              =   -6904.57086669 Ry
     Harris-Foulkes estimate   =   -6904.57087293 Ry
     estimated scf accuracy    <       0.00028818 Ry

     iteration # 93     ecut=    40.42 Ry     beta=0.20
     Davidson diagonalization with overlap
     ethr =  6.46E-09,  avg # of iterations =  1.0

     negative rho (up, down):  5.660E+00 0.000E+00

     total cpu time spent up to now is    14672.0 secs

     total energy              =   -6904.57081872 Ry
     Harris-Foulkes estimate   =   -6904.57086711 Ry
     estimated scf accuracy    <       0.00024074 Ry

     iteration # 94     ecut=    40.42 Ry     beta=0.20
     Davidson diagonalization with overlap
     ethr =  6.46E-09,  avg # of iterations =  9.0

     negative rho (up, down):  5.660E+00 0.000E+00

     total cpu time spent up to now is    14911.0 secs

     total energy              =   -6904.57085696 Ry
     Harris-Foulkes estimate   =   -6904.57092579 Ry
     estimated scf accuracy    <       0.00064229 Ry

     iteration # 95     ecut=    40.42 Ry     beta=0.20
     Davidson diagonalization with overlap
     ethr =  6.46E-09,  avg # of iterations =  7.8

     negative rho (up, down):  5.660E+00 0.000E+00

     total cpu time spent up to now is    15120.5 secs

     total energy              =   -6904.57087359 Ry
     Harris-Foulkes estimate   =   -6904.57087367 Ry
     estimated scf accuracy    <       0.00009714 Ry

     iteration # 96     ecut=    40.42 Ry     beta=0.20
     Davidson diagonalization with overlap
     ethr =  6.46E-09,  avg # of iterations =  1.0

     negative rho (up, down):  5.660E+00 0.000E+00

     total cpu time spent up to now is    15268.4 secs

     total energy              =   -6904.57086896 Ry
     Harris-Foulkes estimate   =   -6904.57087366 Ry
     estimated scf accuracy    <       0.00009878 Ry

     iteration # 97     ecut=    40.42 Ry     beta=0.20
     Davidson diagonalization with overlap
     ethr =  6.46E-09,  avg # of iterations =  1.0

     negative rho (up, down):  5.661E+00 0.000E+00

     total cpu time spent up to now is    15422.5 secs

     total energy              =   -6904.57086701 Ry
     Harris-Foulkes estimate   =   -6904.57086926 Ry
     estimated scf accuracy    <       0.00006988 Ry

     iteration # 98     ecut=    40.42 Ry     beta=0.20
     Davidson diagonalization with overlap
     ethr =  6.46E-09,  avg # of iterations =  1.0

     negative rho (up, down):  5.661E+00 0.000E+00

     total cpu time spent up to now is    15571.7 secs

     total energy              =   -6904.57086591 Ry
     Harris-Foulkes estimate   =   -6904.57086715 Ry
     estimated scf accuracy    <       0.00005457 Ry

     iteration # 99     ecut=    40.42 Ry     beta=0.20
     Davidson diagonalization with overlap
     ethr =  6.46E-09,  avg # of iterations =  1.0

     negative rho (up, down):  5.661E+00 0.000E+00

     total cpu time spent up to now is    15718.9 secs

     total energy              =   -6904.57086483 Ry
     Harris-Foulkes estimate   =   -6904.57086600 Ry
     estimated scf accuracy    <       0.00004774 Ry

     iteration #100     ecut=    40.42 Ry     beta=0.20
     Davidson diagonalization with overlap
     ethr =  6.46E-09,  avg # of iterations =  1.0

     negative rho (up, down):  5.661E+00 0.000E+00

     total cpu time spent up to now is    15867.2 secs

     total energy              =   -6904.57086184 Ry
     Harris-Foulkes estimate   =   -6904.57086494 Ry
     estimated scf accuracy    <       0.00003816 Ry

     iteration #101     ecut=    40.42 Ry     beta=0.20
     Davidson diagonalization with overlap
     ethr =  6.46E-09,  avg # of iterations =  5.5

     negative rho (up, down):  5.661E+00 0.000E+00

     total cpu time spent up to now is    16028.1 secs

     total energy              =   -6904.57086761 Ry
     Harris-Foulkes estimate   =   -6904.57086779 Ry
     estimated scf accuracy    <       0.00010401 Ry

     iteration #102     ecut=    40.42 Ry     beta=0.20
     Davidson diagonalization with overlap
     ethr =  6.46E-09,  avg # of iterations =  1.0

     negative rho (up, down):  5.661E+00 0.000E+00

     total cpu time spent up to now is    16170.3 secs

     total energy              =   -6904.57087180 Ry
     Harris-Foulkes estimate   =   -6904.57086768 Ry
     estimated scf accuracy    <       0.00010354 Ry

     iteration #103     ecut=    40.42 Ry     beta=0.20
     Davidson diagonalization with overlap
     c_bands:  1 eigenvalues not converged
     ethr =  6.46E-09,  avg # of iterations = 12.5

     negative rho (up, down):  5.661E+00 0.000E+00

     total cpu time spent up to now is    16351.0 secs

     total energy              =   -6904.57088139 Ry
     Harris-Foulkes estimate   =   -6904.57089937 Ry
     estimated scf accuracy    <       0.00050559 Ry

     iteration #104     ecut=    40.42 Ry     beta=0.20
     Davidson diagonalization with overlap
     ethr =  6.46E-09,  avg # of iterations =  1.8

     negative rho (up, down):  5.661E+00 0.000E+00

     total cpu time spent up to now is    16495.7 secs

     total energy              =   -6904.57088126 Ry
     Harris-Foulkes estimate   =   -6904.57088231 Ry
     estimated scf accuracy    <       0.00039188 Ry

     iteration #105     ecut=    40.42 Ry     beta=0.20
     Davidson diagonalization with overlap
     ethr =  6.46E-09,  avg # of iterations =  1.0

     negative rho (up, down):  5.661E+00 0.000E+00

     total cpu time spent up to now is    16637.6 secs

     total energy              =   -6904.57087564 Ry
     Harris-Foulkes estimate   =   -6904.57088135 Ry
     estimated scf accuracy    <       0.00038030 Ry

     iteration #106     ecut=    40.42 Ry     beta=0.20
     Davidson diagonalization with overlap
     ethr =  6.46E-09,  avg # of iterations =  1.0

     negative rho (up, down):  5.661E+00 0.000E+00

     total cpu time spent up to now is    16783.9 secs

     total energy              =   -6904.57087566 Ry
     Harris-Foulkes estimate   =   -6904.57087586 Ry
     estimated scf accuracy    <       0.00033517 Ry

     iteration #107     ecut=    40.42 Ry     beta=0.20
     Davidson diagonalization with overlap
     ethr =  6.46E-09,  avg # of iterations =  1.0

     negative rho (up, down):  5.661E+00 0.000E+00

     total cpu time spent up to now is    16941.5 secs

     total energy              =   -6904.57087551 Ry
     Harris-Foulkes estimate   =   -6904.57087573 Ry
     estimated scf accuracy    <       0.00033123 Ry

     iteration #108     ecut=    40.42 Ry     beta=0.20
     Davidson diagonalization with overlap
     ethr =  6.46E-09,  avg # of iterations =  1.0

     negative rho (up, down):  5.661E+00 0.000E+00

     total cpu time spent up to now is    17085.4 secs

     total energy              =   -6904.57087500 Ry
     Harris-Foulkes estimate   =   -6904.57087555 Ry
     estimated scf accuracy    <       0.00032612 Ry

     iteration #109     ecut=    40.42 Ry     beta=0.20
     Davidson diagonalization with overlap
     ethr =  6.46E-09,  avg # of iterations =  1.0

     negative rho (up, down):  5.660E+00 0.000E+00

     total cpu time spent up to now is    17241.1 secs

     total energy              =   -6904.57080021 Ry
     Harris-Foulkes estimate   =   -6904.57087502 Ry
     estimated scf accuracy    <       0.00032042 Ry

     iteration #110     ecut=    40.42 Ry     beta=0.20
     Davidson diagonalization with overlap
     ethr =  6.46E-09,  avg # of iterations =  9.0

     negative rho (up, down):  5.660E+00 0.000E+00

     total cpu time spent up to now is    17470.2 secs

     total energy              =   -6904.57089553 Ry
     Harris-Foulkes estimate   =   -6904.57094465 Ry
     estimated scf accuracy    <       0.00082381 Ry

     iteration #111     ecut=    40.42 Ry     beta=0.20
     Davidson diagonalization with overlap
     ethr =  6.46E-09,  avg # of iterations =  7.5

     negative rho (up, down):  5.661E+00 0.000E+00

     total cpu time spent up to now is    17638.6 secs

     total energy              =   -6904.57086118 Ry
     Harris-Foulkes estimate   =   -6904.57090132 Ry
     estimated scf accuracy    <       0.00041483 Ry

     iteration #112     ecut=    40.42 Ry     beta=0.20
     Davidson diagonalization with overlap
     ethr =  6.46E-09,  avg # of iterations =  9.2

     negative rho (up, down):  5.661E+00 0.000E+00

     total cpu time spent up to now is    17832.0 secs

     total energy              =   -6904.57086896 Ry
     Harris-Foulkes estimate   =   -6904.57087095 Ry
     estimated scf accuracy    <       0.00005394 Ry

     iteration #113     ecut=    40.42 Ry     beta=0.20
     Davidson diagonalization with overlap
     ethr =  6.46E-09,  avg # of iterations =  1.0

     negative rho (up, down):  5.661E+00 0.000E+00

     total cpu time spent up to now is    17974.8 secs

     total energy              =   -6904.57086644 Ry
     Harris-Foulkes estimate   =   -6904.57086911 Ry
     estimated scf accuracy    <       0.00004231 Ry

     iteration #114     ecut=    40.42 Ry     beta=0.20
     Davidson diagonalization with overlap
     ethr =  6.46E-09,  avg # of iterations =  1.0

     negative rho (up, down):  5.661E+00 0.000E+00

     total cpu time spent up to now is    18122.9 secs

     total energy              =   -6904.57086708 Ry
     Harris-Foulkes estimate   =   -6904.57086700 Ry
     estimated scf accuracy    <       0.00002622 Ry

     iteration #115     ecut=    40.42 Ry     beta=0.20
     Davidson diagonalization with overlap
     ethr =  4.70E-09,  avg # of iterations =  1.0

     negative rho (up, down):  5.661E+00 0.000E+00

     total cpu time spent up to now is    18272.1 secs

     total energy              =   -6904.57086703 Ry
     Harris-Foulkes estimate   =   -6904.57086715 Ry
     estimated scf accuracy    <       0.00002647 Ry

     iteration #116     ecut=    40.42 Ry     beta=0.20
     Davidson diagonalization with overlap
     ethr =  4.70E-09,  avg # of iterations =  1.0

     negative rho (up, down):  5.661E+00 0.000E+00

     total cpu time spent up to now is    18416.4 secs

     total energy              =   -6904.57086717 Ry
     Harris-Foulkes estimate   =   -6904.57086707 Ry
     estimated scf accuracy    <       0.00002498 Ry

     iteration #117     ecut=    40.42 Ry     beta=0.20
     Davidson diagonalization with overlap
     ethr =  4.48E-09,  avg # of iterations =  1.0

     negative rho (up, down):  5.661E+00 0.000E+00

     total cpu time spent up to now is    18567.5 secs

     total energy              =   -6904.57086703 Ry
     Harris-Foulkes estimate   =   -6904.57086719 Ry
     estimated scf accuracy    <       0.00002556 Ry

     iteration #118     ecut=    40.42 Ry     beta=0.20
     Davidson diagonalization with overlap
     ethr =  4.48E-09,  avg # of iterations =  1.0

     negative rho (up, down):  5.661E+00 0.000E+00

     total cpu time spent up to now is    18726.4 secs

     total energy              =   -6904.57086415 Ry
     Harris-Foulkes estimate   =   -6904.57086705 Ry
     estimated scf accuracy    <       0.00002456 Ry

     iteration #119     ecut=    40.42 Ry     beta=0.20
     Davidson diagonalization with overlap
     ethr =  4.40E-09,  avg # of iterations = 10.5

     negative rho (up, down):  5.661E+00 0.000E+00

     total cpu time spent up to now is    18917.8 secs

     total energy              =   -6904.57087019 Ry
     Harris-Foulkes estimate   =   -6904.57090189 Ry
     estimated scf accuracy    <       0.00052350 Ry

     iteration #120     ecut=    40.42 Ry     beta=0.20
     Davidson diagonalization with overlap
     ethr =  4.40E-09,  avg # of iterations = 10.8

     negative rho (up, down):  5.660E+00 0.000E+00

     total cpu time spent up to now is    19107.1 secs

     total energy              =   -6904.57084249 Ry
     Harris-Foulkes estimate   =   -6904.57087525 Ry
     estimated scf accuracy    <       0.00019369 Ry

     iteration #121     ecut=    40.42 Ry     beta=0.20
     Davidson diagonalization with overlap
     ethr =  4.40E-09,  avg # of iterations =  9.5

     negative rho (up, down):  5.660E+00 0.000E+00

     total cpu time spent up to now is    19341.3 secs

     total energy              =   -6904.57086696 Ry
     Harris-Foulkes estimate   =   -6904.57089528 Ry
     estimated scf accuracy    <       0.00037404 Ry

     iteration #122     ecut=    40.42 Ry     beta=0.20
     Davidson diagonalization with overlap
     ethr =  4.40E-09,  avg # of iterations =  9.2

     negative rho (up, down):  5.661E+00 0.000E+00

     total cpu time spent up to now is    19531.3 secs

     total energy              =   -6904.57086439 Ry
     Harris-Foulkes estimate   =   -6904.57087252 Ry
     estimated scf accuracy    <       0.00010214 Ry

     iteration #123     ecut=    40.42 Ry     beta=0.20
     Davidson diagonalization with overlap
     ethr =  4.40E-09,  avg # of iterations =  1.5

     negative rho (up, down):  5.661E+00 0.000E+00

     total cpu time spent up to now is    19689.2 secs

     total energy              =   -6904.57086273 Ry
     Harris-Foulkes estimate   =   -6904.57086541 Ry
     estimated scf accuracy    <       0.00005091 Ry

     iteration #124     ecut=    40.42 Ry     beta=0.20
     Davidson diagonalization with overlap
     ethr =  4.40E-09,  avg # of iterations =  1.0

     negative rho (up, down):  5.661E+00 0.000E+00

     total cpu time spent up to now is    19843.1 secs

     total energy              =   -6904.57086191 Ry
     Harris-Foulkes estimate   =   -6904.57086308 Ry
     estimated scf accuracy    <       0.00003340 Ry

     iteration #125     ecut=    40.42 Ry     beta=0.20
     Davidson diagonalization with overlap
     ethr =  4.40E-09,  avg # of iterations =  1.0

     negative rho (up, down):  5.661E+00 0.000E+00

     total cpu time spent up to now is    20004.0 secs

     total energy              =   -6904.57086068 Ry
     Harris-Foulkes estimate   =   -6904.57086211 Ry
     estimated scf accuracy    <       0.00002463 Ry

     iteration #126     ecut=    40.42 Ry     beta=0.20
     Davidson diagonalization with overlap
     c_bands:  2 eigenvalues not converged
     c_bands:  1 eigenvalues not converged
     ethr =  4.40E-09,  avg # of iterations = 10.5

     negative rho (up, down):  5.661E+00 0.000E+00

     total cpu time spent up to now is    20191.7 secs

     total energy              =   -6904.57087164 Ry
     Harris-Foulkes estimate   =   -6904.57087160 Ry
     estimated scf accuracy    <       0.00014999 Ry

     iteration #127     ecut=    40.42 Ry     beta=0.20
     Davidson diagonalization with overlap
     ethr =  4.40E-09,  avg # of iterations =  4.8

     negative rho (up, down):  5.661E+00 0.000E+00

     total cpu time spent up to now is    20358.5 secs

     total energy              =   -6904.57087318 Ry
     Harris-Foulkes estimate   =   -6904.57087175 Ry
     estimated scf accuracy    <       0.00015225 Ry

     iteration #128     ecut=    40.42 Ry     beta=0.20
     Davidson diagonalization with overlap
     ethr =  4.40E-09,  avg # of iterations =  4.5

     negative rho (up, down):  5.661E+00 0.000E+00

     total cpu time spent up to now is    20533.0 secs

     total energy              =   -6904.57090245 Ry
     Harris-Foulkes estimate   =   -6904.57088085 Ry
     estimated scf accuracy    <       0.00025522 Ry

     iteration #129     ecut=    40.42 Ry     beta=0.20
     Davidson diagonalization with overlap
     ethr =  4.40E-09,  avg # of iterations =  9.8

     negative rho (up, down):  5.661E+00 0.000E+00

     total cpu time spent up to now is    20727.4 secs

     total energy              =   -6904.57085071 Ry
     Harris-Foulkes estimate   =   -6904.57092046 Ry
     estimated scf accuracy    <       0.00070661 Ry

     iteration #130     ecut=    40.42 Ry     beta=0.20
     Davidson diagonalization with overlap
     ethr =  4.40E-09,  avg # of iterations =  9.5

     negative rho (up, down):  5.661E+00 0.000E+00

     total cpu time spent up to now is    20950.6 secs

     total energy              =   -6904.57087039 Ry
     Harris-Foulkes estimate   =   -6904.57086993 Ry
     estimated scf accuracy    <       0.00003335 Ry

     iteration #131     ecut=    40.42 Ry     beta=0.20
     Davidson diagonalization with overlap
     ethr =  4.40E-09,  avg # of iterations =  1.0

     negative rho (up, down):  5.661E+00 0.000E+00

     total cpu time spent up to now is    21094.7 secs

     total energy              =   -6904.57087075 Ry
     Harris-Foulkes estimate   =   -6904.57087049 Ry
     estimated scf accuracy    <       0.00003720 Ry

     iteration #132     ecut=    40.42 Ry     beta=0.20
     Davidson diagonalization with overlap
     ethr =  4.40E-09,  avg # of iterations =  1.0

     negative rho (up, down):  5.661E+00 0.000E+00

     total cpu time spent up to now is    21238.7 secs

     total energy              =   -6904.57087125 Ry
     Harris-Foulkes estimate   =   -6904.57087083 Ry
     estimated scf accuracy    <       0.00004054 Ry

     iteration #133     ecut=    40.42 Ry     beta=0.20
     Davidson diagonalization with overlap
     ethr =  4.40E-09,  avg # of iterations =  1.0

     negative rho (up, down):  5.661E+00 0.000E+00

     total cpu time spent up to now is    21383.6 secs

     total energy              =   -6904.57087246 Ry
     Harris-Foulkes estimate   =   -6904.57087129 Ry
     estimated scf accuracy    <       0.00004400 Ry

     iteration #134     ecut=    40.42 Ry     beta=0.20
     Davidson diagonalization with overlap
     ethr =  4.40E-09,  avg # of iterations =  1.0

     negative rho (up, down):  5.660E+00 0.000E+00

     total cpu time spent up to now is    21531.4 secs

     total energy              =   -6904.57086798 Ry
     Harris-Foulkes estimate   =   -6904.57087259 Ry
     estimated scf accuracy    <       0.00005370 Ry

     iteration #135     ecut=    40.42 Ry     beta=0.20
     Davidson diagonalization with overlap
     ethr =  4.40E-09,  avg # of iterations =  1.2

     negative rho (up, down):  5.660E+00 0.000E+00

     total cpu time spent up to now is    21687.7 secs

     total energy              =   -6904.57086471 Ry
     Harris-Foulkes estimate   =   -6904.57086923 Ry
     estimated scf accuracy    <       0.00003052 Ry

     iteration #136     ecut=    40.42 Ry     beta=0.20
     Davidson diagonalization with overlap
     ethr =  4.40E-09,  avg # of iterations = 10.8

     negative rho (up, down):  5.660E+00 0.000E+00

     total cpu time spent up to now is    21883.7 secs

     total energy              =   -6904.57088192 Ry
     Harris-Foulkes estimate   =   -6904.57088748 Ry
     estimated scf accuracy    <       0.00025910 Ry

     iteration #137     ecut=    40.42 Ry     beta=0.20
     Davidson diagonalization with overlap
     ethr =  4.40E-09,  avg # of iterations =  1.0

     negative rho (up, down):  5.661E+00 0.000E+00

     total cpu time spent up to now is    22044.1 secs

     total energy              =   -6904.57088103 Ry
     Harris-Foulkes estimate   =   -6904.57088268 Ry
     estimated scf accuracy    <       0.00023240 Ry

     iteration #138     ecut=    40.42 Ry     beta=0.20
     Davidson diagonalization with overlap
     ethr =  4.40E-09,  avg # of iterations =  1.0

     negative rho (up, down):  5.661E+00 0.000E+00

     total cpu time spent up to now is    22192.2 secs

     total energy              =   -6904.57084246 Ry
     Harris-Foulkes estimate   =   -6904.57088114 Ry
     estimated scf accuracy    <       0.00022127 Ry

     iteration #139     ecut=    40.42 Ry     beta=0.20
     Davidson diagonalization with overlap
     ethr =  4.40E-09,  avg # of iterations =  9.8

     negative rho (up, down):  5.661E+00 0.000E+00

     total cpu time spent up to now is    22410.1 secs

     total energy              =   -6904.57086273 Ry
     Harris-Foulkes estimate   =   -6904.57089108 Ry
     estimated scf accuracy    <       0.00041921 Ry

     iteration #140     ecut=    40.42 Ry     beta=0.20
     Davidson diagonalization with overlap
     ethr =  4.40E-09,  avg # of iterations = 11.2

     negative rho (up, down):  5.661E+00 0.000E+00

     total cpu time spent up to now is    22592.4 secs

     total energy              =   -6904.57087037 Ry
     Harris-Foulkes estimate   =   -6904.57087062 Ry
     estimated scf accuracy    <       0.00004663 Ry

     iteration #141     ecut=    40.42 Ry     beta=0.20
     Davidson diagonalization with overlap
     ethr =  4.40E-09,  avg # of iterations =  1.0

     negative rho (up, down):  5.661E+00 0.000E+00

     total cpu time spent up to now is    22739.8 secs

     total energy              =   -6904.57087074 Ry
     Harris-Foulkes estimate   =   -6904.57087045 Ry
     estimated scf accuracy    <       0.00004492 Ry

     iteration #142     ecut=    40.42 Ry     beta=0.20
     Davidson diagonalization with overlap
     ethr =  4.40E-09,  avg # of iterations =  1.0

     negative rho (up, down):  5.661E+00 0.000E+00

     total cpu time spent up to now is    22888.1 secs

     total energy              =   -6904.57087078 Ry
     Harris-Foulkes estimate   =   -6904.57087076 Ry
     estimated scf accuracy    <       0.00004631 Ry

     iteration #143     ecut=    40.42 Ry     beta=0.20
     Davidson diagonalization with overlap
     ethr =  4.40E-09,  avg # of iterations =  1.0

     negative rho (up, down):  5.661E+00 0.000E+00

     total cpu time spent up to now is    23036.9 secs

     total energy              =   -6904.57087065 Ry
     Harris-Foulkes estimate   =   -6904.57087079 Ry
     estimated scf accuracy    <       0.00004641 Ry

     iteration #144     ecut=    40.42 Ry     beta=0.20
     Davidson diagonalization with overlap
     ethr =  4.40E-09,  avg # of iterations =  1.0

     negative rho (up, down):  5.661E+00 0.000E+00

     total cpu time spent up to now is    23191.1 secs

     total energy              =   -6904.57087065 Ry
     Harris-Foulkes estimate   =   -6904.57087065 Ry
     estimated scf accuracy    <       0.00004544 Ry

     iteration #145     ecut=    40.42 Ry     beta=0.20
     Davidson diagonalization with overlap
     ethr =  4.40E-09,  avg # of iterations =  1.0

     negative rho (up, down):  5.661E+00 0.000E+00

     total cpu time spent up to now is    23343.9 secs

     total energy              =   -6904.57087046 Ry
     Harris-Foulkes estimate   =   -6904.57087066 Ry
     estimated scf accuracy    <       0.00004547 Ry

     iteration #146     ecut=    40.42 Ry     beta=0.20
     Davidson diagonalization with overlap
     ethr =  4.40E-09,  avg # of iterations =  1.0

     negative rho (up, down):  5.661E+00 0.000E+00

     total cpu time spent up to now is    23493.8 secs

     total energy              =   -6904.57087080 Ry
     Harris-Foulkes estimate   =   -6904.57087047 Ry
     estimated scf accuracy    <       0.00004416 Ry

     iteration #147     ecut=    40.42 Ry     beta=0.20
     Davidson diagonalization with overlap
     ethr =  4.40E-09,  avg # of iterations =  1.0

     negative rho (up, down):  5.660E+00 0.000E+00

     total cpu time spent up to now is    23649.4 secs

     total energy              =   -6904.57085924 Ry
     Harris-Foulkes estimate   =   -6904.57087080 Ry
     estimated scf accuracy    <       0.00004645 Ry

     iteration #148     ecut=    40.42 Ry     beta=0.20
     Davidson diagonalization with overlap
     ethr =  4.40E-09,  avg # of iterations =  9.8

     negative rho (up, down):  5.661E+00 0.000E+00

     total cpu time spent up to now is    23869.8 secs

     total energy              =   -6904.57083125 Ry
     Harris-Foulkes estimate   =   -6904.57091597 Ry
     estimated scf accuracy    <       0.00052179 Ry

     iteration #149     ecut=    40.42 Ry     beta=0.20
     Davidson diagonalization with overlap
     ethr =  4.40E-09,  avg # of iterations =  9.8

     negative rho (up, down):  5.661E+00 0.000E+00

     total cpu time spent up to now is    24101.3 secs

     total energy              =   -6904.57086043 Ry
     Harris-Foulkes estimate   =   -6904.57088345 Ry
     estimated scf accuracy    <       0.00032031 Ry

     iteration #150     ecut=    40.42 Ry     beta=0.20
     Davidson diagonalization with overlap
     ethr =  4.40E-09,  avg # of iterations = 11.8

     negative rho (up, down):  5.661E+00 0.000E+00

     total cpu time spent up to now is    24285.7 secs

     total energy              =   -6904.57086872 Ry
     Harris-Foulkes estimate   =   -6904.57087026 Ry
     estimated scf accuracy    <       0.00005227 Ry

     iteration #151     ecut=    40.42 Ry     beta=0.20
     Davidson diagonalization with overlap
     ethr =  4.40E-09,  avg # of iterations =  1.0

     negative rho (up, down):  5.661E+00 0.000E+00

     total cpu time spent up to now is    24444.0 secs

     total energy              =   -6904.57086832 Ry
     Harris-Foulkes estimate   =   -6904.57086884 Ry
     estimated scf accuracy    <       0.00004436 Ry

     iteration #152     ecut=    40.42 Ry     beta=0.20
     Davidson diagonalization with overlap
     ethr =  4.40E-09,  avg # of iterations =  1.0

     negative rho (up, down):  5.661E+00 0.000E+00

     total cpu time spent up to now is    24600.4 secs

     total energy              =   -6904.57086718 Ry
     Harris-Foulkes estimate   =   -6904.57086834 Ry
     estimated scf accuracy    <       0.00004108 Ry

     iteration #153     ecut=    40.42 Ry     beta=0.20
     Davidson diagonalization with overlap
     ethr =  4.40E-09,  avg # of iterations =  1.0

     negative rho (up, down):  5.661E+00 0.000E+00

     total cpu time spent up to now is    24754.6 secs

     total energy              =   -6904.57086385 Ry
     Harris-Foulkes estimate   =   -6904.57086723 Ry
     estimated scf accuracy    <       0.00003402 Ry

     iteration #154     ecut=    40.42 Ry     beta=0.20
     Davidson diagonalization with overlap
     ethr =  4.40E-09,  avg # of iterations =  1.0

     negative rho (up, down):  5.661E+00 0.000E+00

     total cpu time spent up to now is    24901.8 secs

     total energy              =   -6904.57086283 Ry
     Harris-Foulkes estimate   =   -6904.57086434 Ry
     estimated scf accuracy    <       0.00001534 Ry

     iteration #155     ecut=    40.42 Ry     beta=0.20
     Davidson diagonalization with overlap
     c_bands:  2 eigenvalues not converged
     c_bands:  2 eigenvalues not converged
     ethr =  2.75E-09,  avg # of iterations = 11.2

     negative rho (up, down):  5.661E+00 0.000E+00

     total cpu time spent up to now is    25085.7 secs

     total energy              =   -6904.57087654 Ry
     Harris-Foulkes estimate   =   -6904.57087576 Ry
     estimated scf accuracy    <       0.00020327 Ry

     iteration #156     ecut=    40.42 Ry     beta=0.20
     Davidson diagonalization with overlap
     ethr =  2.75E-09,  avg # of iterations =  6.0

     negative rho (up, down):  5.661E+00 0.000E+00

     total cpu time spent up to now is    25252.3 secs

     total energy              =   -6904.57089326 Ry
     Harris-Foulkes estimate   =   -6904.57087670 Ry
     estimated scf accuracy    <       0.00021039 Ry

     iteration #157     ecut=    40.42 Ry     beta=0.20
     Davidson diagonalization with overlap
     ethr =  2.75E-09,  avg # of iterations =  9.5

     negative rho (up, down):  5.661E+00 0.000E+00

     total cpu time spent up to now is    25454.4 secs

     total energy              =   -6904.57088764 Ry
     Harris-Foulkes estimate   =   -6904.57091200 Ry
     estimated scf accuracy    <       0.00060558 Ry

     iteration #158     ecut=    40.42 Ry     beta=0.20
     Davidson diagonalization with overlap
     ethr =  2.75E-09,  avg # of iterations = 14.5

     negative rho (up, down):  5.661E+00 0.000E+00

     total cpu time spent up to now is    25645.9 secs

     total energy              =   -6904.57088516 Ry
     Harris-Foulkes estimate   =   -6904.57088964 Ry
     estimated scf accuracy    <       0.00037659 Ry

     iteration #159     ecut=    40.42 Ry     beta=0.20
     Davidson diagonalization with overlap
     ethr =  2.75E-09,  avg # of iterations =  1.0

     negative rho (up, down):  5.661E+00 0.000E+00

     total cpu time spent up to now is    25798.5 secs

     total energy              =   -6904.57087177 Ry
     Harris-Foulkes estimate   =   -6904.57088532 Ry
     estimated scf accuracy    <       0.00034814 Ry

     iteration #160     ecut=    40.42 Ry     beta=0.20
     Davidson diagonalization with overlap
     ethr =  2.75E-09,  avg # of iterations = 12.2

     negative rho (up, down):  5.661E+00 0.000E+00

     total cpu time spent up to now is    25978.4 secs

     total energy              =   -6904.57087501 Ry
     Harris-Foulkes estimate   =   -6904.57087512 Ry
     estimated scf accuracy    <       0.00012337 Ry

     iteration #161     ecut=    40.42 Ry     beta=0.20
     Davidson diagonalization with overlap
     ethr =  2.75E-09,  avg # of iterations =  1.0

     negative rho (up, down):  5.661E+00 0.000E+00

     total cpu time spent up to now is    26129.8 secs

     total energy              =   -6904.57087391 Ry
     Harris-Foulkes estimate   =   -6904.57087509 Ry
     estimated scf accuracy    <       0.00012280 Ry

     iteration #162     ecut=    40.42 Ry     beta=0.20
     Davidson diagonalization with overlap
     ethr =  2.75E-09,  avg # of iterations =  1.0

     negative rho (up, down):  5.661E+00 0.000E+00

     total cpu time spent up to now is    26279.6 secs

     total energy              =   -6904.57087671 Ry
     Harris-Foulkes estimate   =   -6904.57087424 Ry
     estimated scf accuracy    <       0.00011159 Ry

     iteration #163     ecut=    40.42 Ry     beta=0.20
     Davidson diagonalization with overlap
[...]
     /gpfs/pace1/project/chbe-medford/medford-share/data/pseudos/SSSP_eff_PBE/Pt.UPF
     MD5 check sum: f09d6de1a584b5a045c4fc126da2d0c4
     Pseudo is Ultrasoft + core correction, Zval = 16.0
     Generated by new atomic code, or converted to UPF format
     Using radial grid of  985 points,  6 beta functions with: 
                l(1) =   0
                l(2) =   0
                l(3) =   1
                l(4) =   1
                l(5) =   2
                l(6) =   2
     Q(r) pseudized with  8 coefficients,  rinner =    1.300   1.300   1.300
                                                       1.300   1.300

     PseudoPot. # 2 for O  read from file:
     /gpfs/pace1/project/chbe-medford/medford-share/data/pseudos/SSSP_eff_PBE/O.UPF
     MD5 check sum: 734c27235a0248c51dbae37a1fbe46ec
     Pseudo is Ultrasoft + core correction, Zval =  6.0
     Generated by new atomic code, or converted to UPF format
     Using radial grid of  737 points,  5 beta functions with: 
                l(1) =   0
                l(2) =   0
                l(3) =   1
                l(4) =   1
                l(5) =   2
     Q(r) pseudized with  8 coefficients,  rinner =    0.900   0.900   0.900
                                                       0.900   0.900

     PseudoPot. # 3 for C  read from file:
     /gpfs/pace1/project/chbe-medford/medford-share/data/pseudos/SSSP_eff_PBE/C.UPF
     MD5 check sum: d1aef80898a10debaa0f26306b886e00
     Pseudo is Ultrasoft + core correction, Zval =  4.0
     Generated by new atomic code, or converted to UPF format
     Using radial grid of  721 points,  4 beta functions with: 
                l(1) =   0
                l(2) =   0
                l(3) =   1
                l(4) =   1
     Q(r) pseudized with  8 coefficients,  rinner =    1.100   1.100   1.100


     PseudoPot. # 4 for  H read from file:
     /gpfs/pace1/project/chbe-medford/medford-share/data/pseudos/SSSP_eff_PBE/H.UPF
     MD5 check sum: 36633979392af7100e6f6632747262d3
     Pseudo is Ultrasoft, Zval =  1.0
     Generated using "atomic" code by A. Dal Corso  v.5.0.99 svn rev. 10869
     Using radial grid of  929 points,  2 beta functions with: 
                l(1) =   0
                l(2) =   0
     Q(r) pseudized with 0 coefficients 


     atomic species   valence    mass     pseudopotential
        Pt1           16.00   195.08000     Pt( 1.00)
        O1             6.00    15.99940     O ( 1.00)
        C1             4.00    12.01100     C ( 1.00)
        H1             1.00     1.00794      H( 1.00)

     No symmetry found



   Cartesian axes

     site n.     atom                  positions (alat units)
         1           Pt1 tau(   1) = (   0.0000000   0.0000000  10.0000000  )
         2           Pt1 tau(   2) = (   1.3874142   0.8010240  12.2656379  )
         3           Pt1 tau(   3) = (  -1.3874142   2.4030719  10.0000000  )
         4           Pt1 tau(   4) = (   0.0000000   3.2040959  12.2656379  )
         5           Pt1 tau(   5) = (  -2.7748284   4.8061438  10.0000000  )
         6           Pt1 tau(   6) = (  -1.3874142   5.6071678  12.2656379  )
         7           Pt1 tau(   7) = (  -4.1622426   7.2092157  10.0000000  )
         8           Pt1 tau(   8) = (  -2.7748284   8.0102397  12.2656379  )
         9           Pt1 tau(   9) = (   2.7748284   0.0000000  10.0000000  )
        10           Pt1 tau(  10) = (   4.1622426   0.8010240  12.2656379  )
        11           Pt1 tau(  11) = (   1.3874142   2.4030719  10.0000000  )
        12           Pt1 tau(  12) = (   2.7748284   3.2040959  12.2656379  )
        13           Pt1 tau(  13) = (   0.0000000   4.8061438  10.0000000  )
        14           Pt1 tau(  14) = (   1.3874142   5.6071678  12.2656379  )
        15           Pt1 tau(  15) = (  -1.3874142   7.2092157  10.0000000  )
        16           Pt1 tau(  16) = (   0.0000000   8.0102397  12.2656379  )
        17           Pt1 tau(  17) = (   5.5496569   0.0000000  10.0000000  )
        18           Pt1 tau(  18) = (   6.9370711   0.8010240  12.2656379  )
        19           Pt1 tau(  19) = (   4.1622426   2.4030719  10.0000000  )
        20           Pt1 tau(  20) = (   5.5496569   3.2040959  12.2656379  )
        21           Pt1 tau(  21) = (   2.7748284   4.8061438  10.0000000  )
        22           Pt1 tau(  22) = (   4.1622426   5.6071678  12.2656379  )
        23           Pt1 tau(  23) = (   1.3874142   7.2092157  10.0000000  )
        24           Pt1 tau(  24) = (   2.7748284   8.0102397  12.2656379  )
        25           Pt1 tau(  25) = (   8.3244853   0.0000000  10.0000000  )
        26           Pt1 tau(  26) = (   9.7118995   0.8010240  12.2656379  )
        27           Pt1 tau(  27) = (   6.9370711   2.4030719  10.0000000  )
        28           Pt1 tau(  28) = (   8.3244853   3.2040959  12.2656379  )
        29           Pt1 tau(  29) = (   5.5496569   4.8061438  10.0000000  )
        30           Pt1 tau(  30) = (   6.9370711   5.6071678  12.2656379  )
        31           Pt1 tau(  31) = (   4.1622426   7.2092157  10.0000000  )
        32           Pt1 tau(  32) = (   5.5496569   8.0102397  12.2656379  )
        33           O1  tau(  33) = (   4.2141562   6.9702850  16.8966954  )
        34           O1  tau(  34) = (   4.1602933   2.4237802  14.7902448  )
        35           O1  tau(  35) = (   4.2133485   1.9348983  16.9977544  )
        36           C1  tau(  36) = (   4.1982292   4.7061158  17.6916679  )
        37           C1  tau(  37) = (   4.1942375   4.2654291  16.2449222  )
        38           C1  tau(  38) = (   4.1934573   6.2157332  17.8554410  )
        39           C1  tau(  39) = (   4.1622324   6.7180933  19.2858755  )
        40           C1  tau(  40) = (   4.1919365   2.7654617  16.1104102  )
        41           H1  tau(  41) = (   5.0704747   4.2870372  18.2185909  )
        42           H1  tau(  42) = (   3.3338221   4.2800981  18.2249990  )
        43           H1  tau(  43) = (   5.0610030   4.6701300  15.6998541  )
        44           H1  tau(  44) = (   3.3253377   4.6727825  15.7056209  )
        45           H1  tau(  45) = (   3.2601971   6.3435755  19.8000315  )
        46           H1  tau(  46) = (   5.0283011   6.3278629  19.8483333  )
        47           H1  tau(  47) = (   4.1705252   7.8153915  19.2873885  )
        48           H1  tau(  48) = (   4.1613542   1.4420265  14.6980112  )

     number of k points=    10  Fermi-Dirac smearing, width (Ry)=  0.0073
                       cart. coord. in units 2pi/alat
        k(    1) = (   0.0000000   0.0000000   0.0000000), wk =   0.1250000
        k(    2) = (   0.0000000   0.0260084   0.0000000), wk =   0.2500000
        k(    3) = (   0.0000000  -0.0520168   0.0000000), wk =   0.1250000
        k(    4) = (   0.0225239   0.0390126   0.0000000), wk =   0.2500000
        k(    5) = (  -0.0225239   0.0130042   0.0000000), wk =   0.2500000
        k(    6) = (   0.0225239   0.0130042   0.0000000), wk =   0.2500000
        k(    7) = (   0.0450478  -0.0260084   0.0000000), wk =   0.1250000
        k(    8) = (  -0.0450478  -0.0260084   0.0000000), wk =   0.1250000
        k(    9) = (  -0.0225239   0.0390126   0.0000000), wk =   0.2500000
        k(   10) = (   0.0450478   0.0000000   0.0000000), wk =   0.2500000

     Dense  grid:  2181051 G-vectors     FFT dimensions: ( 125, 125, 360)

     Smooth grid:   745939 G-vectors     FFT dimensions: (  90,  90, 240)

     Largest allocated arrays     est. size (Mb)     dimensions
        Kohn-Sham Wavefunctions        34.75 Mb     (    7881,  289)
        NL pseudopotentials            80.69 Mb     (    7881,  671)
        Each V/rho on FFT grid          7.15 Mb     (  468750)
        Each G-vector array             1.39 Mb     (  181759)
        G-vector shells                 0.46 Mb     (   59830)
     Largest temporary arrays     est. size (Mb)     dimensions
        Auxiliary wavefunctions       139.01 Mb     (    7881, 1156)
        Each subspace H/S matrix       20.39 Mb     (    1156, 1156)
        Each <psi_i|beta_j> matrix      2.96 Mb     (     671,  289)
        Arrays for rho mixing          57.22 Mb     (  468750,    8)

     Initial potential from superposition of free atoms
     Check: negative starting charge=   -5.909489

     starting charge  541.99935, renormalised to  558.00000

     negative rho (up, down):  6.084E+00 0.000E+00
     Starting wfc are  424 randomized atomic wfcs

     total cpu time spent up to now is     1799.1 secs

     per-process dynamical memory:   601.9 Mb

     Self-consistent Calculation

     iteration #  1     ecut=    40.42 Ry     beta=0.15
     Davidson diagonalization with overlap
     ethr =  1.00E-02,  avg # of iterations =  2.0

     negative rho (up, down):  6.005E+00 0.000E+00

     total cpu time spent up to now is     5018.6 secs

     total energy              =   -6911.66351827 Ry
     Harris-Foulkes estimate   =   -6915.33912943 Ry
     estimated scf accuracy    <      71.97402371 Ry

     iteration #  2     ecut=    40.42 Ry     beta=0.15
     Davidson diagonalization with overlap
     ethr =  1.00E-02,  avg # of iterations =  1.0

     negative rho (up, down):  5.862E+00 0.000E+00

     total cpu time spent up to now is     7386.8 secs

     total energy              =   -6901.23112445 Ry
     Harris-Foulkes estimate   =   -6911.89581443 Ry
     estimated scf accuracy    <      54.53489588 Ry

     iteration #  3     ecut=    40.42 Ry     beta=0.15
     Davidson diagonalization with overlap
     ethr =  9.77E-03,  avg # of iterations =  2.7

     negative rho (up, down):  5.877E+00 0.000E+00

     total cpu time spent up to now is     9919.7 secs

     total energy              =   -6904.37681799 Ry
     Harris-Foulkes estimate   =   -6904.96380864 Ry
     estimated scf accuracy    <       5.85410489 Ry

     iteration #  4     ecut=    40.42 Ry     beta=0.15
     Davidson diagonalization with overlap
     ethr =  1.05E-03,  avg # of iterations =  6.3

     negative rho (up, down):  5.924E+00 0.000E+00

     total cpu time spent up to now is    12970.4 secs

     total energy              =   -6905.20085274 Ry
     Harris-Foulkes estimate   =   -6905.36233349 Ry
     estimated scf accuracy    <       6.98295742 Ry

     iteration #  5     ecut=    40.42 Ry     beta=0.15
     Davidson diagonalization with overlap
     ethr =  1.05E-03,  avg # of iterations =  1.0

     negative rho (up, down):  5.953E+00 0.000E+00

     total cpu time spent up to now is    15388.0 secs

     total energy              =   -6904.87580095 Ry
     Harris-Foulkes estimate   =   -6905.31292075 Ry
     estimated scf accuracy    <       4.01747261 Ry

     iteration #  6     ecut=    40.42 Ry     beta=0.15
     Davidson diagonalization with overlap
     ethr =  7.20E-04,  avg # of iterations =  1.2

     negative rho (up, down):  6.100E+00 0.000E+00

     total cpu time spent up to now is    17744.8 secs

     total energy              =   -6904.57722084 Ry
     Harris-Foulkes estimate   =   -6904.94889753 Ry
     estimated scf accuracy    <       2.33480180 Ry

     iteration #  7     ecut=    40.42 Ry     beta=0.15
     Davidson diagonalization with overlap
     ethr =  4.18E-04,  avg # of iterations =  5.7

     negative rho (up, down):  6.099E+00 0.000E+00

     total cpu time spent up to now is    20518.5 secs

     total energy              =   -6905.09187023 Ry
     Harris-Foulkes estimate   =   -6905.09430312 Ry
     estimated scf accuracy    <      10.17108268 Ry

     iteration #  8     ecut=    40.42 Ry     beta=0.15
     Davidson diagonalization with overlap
     ethr =  4.18E-04,  avg # of iterations =  1.0

     negative rho (up, down):  6.098E+00 0.000E+00

     total cpu time spent up to now is    22857.8 secs

     total energy              =   -6905.09041396 Ry
     Harris-Foulkes estimate   =   -6905.09475249 Ry
     estimated scf accuracy    <      10.09012793 Ry

     iteration #  9     ecut=    40.42 Ry     beta=0.15
     Davidson diagonalization with overlap
     ethr =  4.18E-04,  avg # of iterations =  1.0

     negative rho (up, down):  6.092E+00 0.000E+00

     total cpu time spent up to now is    25142.2 secs

     total energy              =   -6905.01639142 Ry
     Harris-Foulkes estimate   =   -6905.09080393 Ry
     estimated scf accuracy    <       9.95947010 Ry

     iteration # 10     ecut=    40.42 Ry     beta=0.15
     Davidson diagonalization with overlap
     ethr =  4.18E-04,  avg # of iterations =  1.0

     negative rho (up, down):  6.086E+00 0.000E+00

     total cpu time spent up to now is    27462.5 secs

     total energy              =   -6905.20975623 Ry
     Harris-Foulkes estimate   =   -6905.02360249 Ry
     estimated scf accuracy    <       7.74399253 Ry

     iteration # 11     ecut=    40.42 Ry     beta=0.15
     Davidson diagonalization with overlap
     ethr =  4.18E-04,  avg # of iterations =  2.0

     negative rho (up, down):  6.016E+00 0.000E+00

     total cpu time spent up to now is    29785.1 secs

     total energy              =   -6904.46865338 Ry
     Harris-Foulkes estimate   =   -6905.29104162 Ry
     estimated scf accuracy    <      16.02833769 Ry

     iteration # 12     ecut=    40.42 Ry     beta=0.15
     Davidson diagonalization with overlap
     ethr =  4.18E-04,  avg # of iterations =  5.4

     negative rho (up, down):  6.104E+00 0.000E+00

     total cpu time spent up to now is    32485.3 secs

     total energy              =   -6904.98926091 Ry
     Harris-Foulkes estimate   =   -6904.91385769 Ry
     estimated scf accuracy    <       4.48619096 Ry

     iteration # 13     ecut=    40.42 Ry     beta=0.15
     Davidson diagonalization with overlap
     ethr =  4.18E-04,  avg # of iterations =  5.1

     negative rho (up, down):  6.109E+00 0.000E+00

     total cpu time spent up to now is    35077.7 secs

     total energy              =   -6904.66880453 Ry
     Harris-Foulkes estimate   =   -6905.28035332 Ry
     estimated scf accuracy    <      16.24267170 Ry

     iteration # 14     ecut=    40.42 Ry     beta=0.15
     Davidson diagonalization with overlap
     ethr =  4.18E-04,  avg # of iterations =  5.9

     negative rho (up, down):  6.118E+00 0.000E+00

     total cpu time spent up to now is    37683.3 secs

     total energy              =   -6904.91326393 Ry
     Harris-Foulkes estimate   =   -6904.94539223 Ry
     estimated scf accuracy    <       4.40964328 Ry

     iteration # 15     ecut=    40.42 Ry     beta=0.15
     Davidson diagonalization with overlap
     ethr =  4.18E-04,  avg # of iterations =  1.0

     negative rho (up, down):  6.112E+00 0.000E+00

     total cpu time spent up to now is    40006.0 secs

     total energy              =   -6904.92595713 Ry
     Harris-Foulkes estimate   =   -6904.97274255 Ry
     estimated scf accuracy    <       2.97932059 Ry

     iteration # 16     ecut=    40.42 Ry     beta=0.15
     Davidson diagonalization with overlap
     ethr =  4.18E-04,  avg # of iterations =  1.0

     negative rho (up, down):  6.057E+00 0.000E+00

     total cpu time spent up to now is    42352.7 secs

     total energy              =   -6904.56203312 Ry
     Harris-Foulkes estimate   =   -6904.93673904 Ry
     estimated scf accuracy    <       2.83156465 Ry

     iteration # 17     ecut=    40.42 Ry     beta=0.15
     Davidson diagonalization with overlap
     ethr =  4.18E-04,  avg # of iterations =  4.2

     negative rho (up, down):  6.128E+00 0.000E+00

     total cpu time spent up to now is    45820.4 secs

     total energy              =   -6904.69095946 Ry
     Harris-Foulkes estimate   =   -6904.72479904 Ry
     estimated scf accuracy    <       1.21079271 Ry

     iteration # 18     ecut=    40.42 Ry     beta=0.15
     Davidson diagonalization with overlap
     ethr =  2.17E-04,  avg # of iterations =  2.0

     negative rho (up, down):  6.165E+00 0.000E+00

     total cpu time spent up to now is    49134.4 secs

     total energy              =   -6904.66690959 Ry
     Harris-Foulkes estimate   =   -6904.74605676 Ry
     estimated scf accuracy    <       1.51128871 Ry

     iteration # 19     ecut=    40.42 Ry     beta=0.15
     Davidson diagonalization with overlap
     ethr =  2.17E-04,  avg # of iterations =  1.0

     negative rho (up, down):  6.146E+00 0.000E+00

     total cpu time spent up to now is    53269.0 secs

     total energy              =   -6904.66473826 Ry
     Harris-Foulkes estimate   =   -6904.69125822 Ry
     estimated scf accuracy    <       0.46914881 Ry

     iteration # 20     ecut=    40.42 Ry     beta=0.15
     Davidson diagonalization with overlap
     ethr =  8.41E-05,  avg # of iterations =  4.1

     negative rho (up, down):  6.062E+00 0.000E+00

     total cpu time spent up to now is    57872.1 secs

     total energy              =   -6904.65410770 Ry
     Harris-Foulkes estimate   =   -6904.68272106 Ry
     estimated scf accuracy    <       0.21443073 Ry

     iteration # 21     ecut=    40.42 Ry     beta=0.15
     Davidson diagonalization with overlap
     ethr =  3.84E-05,  avg # of iterations =  2.1

     negative rho (up, down):  6.059E+00 0.000E+00

     total cpu time spent up to now is    61612.1 secs

     total energy              =   -6904.64239909 Ry
     Harris-Foulkes estimate   =   -6904.66341962 Ry
     estimated scf accuracy    <       0.26463772 Ry

     iteration # 22     ecut=    40.42 Ry     beta=0.15
     Davidson diagonalization with overlap
     ethr =  3.84E-05,  avg # of iterations =  2.3

     negative rho (up, down):  6.031E+00 0.000E+00

     total cpu time spent up to now is    65801.1 secs

     total energy              =   -6904.62743319 Ry
     Harris-Foulkes estimate   =   -6904.64756023 Ry
     estimated scf accuracy    <       0.12461452 Ry

     iteration # 23     ecut=    40.42 Ry     beta=0.15
     Davidson diagonalization with overlap
     ethr =  2.23E-05,  avg # of iterations =  5.3

     negative rho (up, down):  5.941E+00 0.000E+00

     total cpu time spent up to now is    69398.9 secs

     total energy              =   -6904.62402720 Ry
     Harris-Foulkes estimate   =   -6904.63669202 Ry
     estimated scf accuracy    <       0.07292883 Ry

     iteration # 24     ecut=    40.42 Ry     beta=0.15
     Davidson diagonalization with overlap
     ethr =  1.31E-05,  avg # of iterations =  8.0

     negative rho (up, down):  5.903E+00 0.000E+00

     total cpu time spent up to now is    72712.5 secs

     total energy              =   -6904.62599641 Ry
     Harris-Foulkes estimate   =   -6904.63395702 Ry
     estimated scf accuracy    <       0.09006788 Ry

     iteration # 25     ecut=    40.42 Ry     beta=0.15
     Davidson diagonalization with overlap
     ethr =  1.31E-05,  avg # of iterations =  1.0

     negative rho (up, down):  5.813E+00 0.000E+00

     total cpu time spent up to now is    76373.7 secs

     total energy              =   -6904.60751469 Ry
     Harris-Foulkes estimate   =   -6904.62670666 Ry
     estimated scf accuracy    <       0.05974779 Ry

     iteration # 26     ecut=    40.42 Ry     beta=0.15
     Davidson diagonalization with overlap
     ethr =  1.07E-05,  avg # of iterations =  3.8

     negative rho (up, down):  5.789E+00 0.000E+00

     total cpu time spent up to now is    81826.5 secs

     total energy              =   -6904.61059721 Ry
     Harris-Foulkes estimate   =   -6904.61297954 Ry
     estimated scf accuracy    <       0.01840912 Ry

     iteration # 27     ecut=    40.42 Ry     beta=0.15
     Davidson diagonalization with overlap
     ethr =  3.30E-06,  avg # of iterations =  4.8

     negative rho (up, down):  5.744E+00 0.000E+00

     total cpu time spent up to now is    86359.2 secs

     total energy              =   -6904.60895376 Ry
     Harris-Foulkes estimate   =   -6904.61103498 Ry
     estimated scf accuracy    <       0.01216510 Ry

     iteration # 28     ecut=    40.42 Ry     beta=0.15
     Davidson diagonalization with overlap
