  python dir          : /gpfs/pace1/project/chbe-medford/medford-share/gits/frozen/ben_espresso_8_24_2017/espresso
  espresso dir        : /nv/hp22/amedford6/medford-shared/builds/espresso/5.1.r11289-pybeef/intel-16.0+mvapich2-2.2+mkl-11.3/espresso-5.1.r11289-pybeef/bin
  pseudo dir          : /gpfs/pace1/project/chbe-medford/medford-share/data/pseudos/SSSP_eff_PBE
  ase-espresso py git : GITVERSION



     Program PWSCF v.5.1rc2 starts on  9Feb2019 at 22: 8:22 

     This program is part of the open-source Quantum ESPRESSO suite
     for quantum simulation of materials; please cite
         "P. Giannozzi et al., J. Phys.:Condens. Matter 21 395502 (2009);
          URL http://www.quantum-espresso.org", 
     in publications or presentations arising from this work. More details at
     http://www.quantum-espresso.org/quote

     Parallel version (MPI), running on    12 processors
     R & G space division:  proc/nbgrp/npool/nimage =      12
     Reading input from pw.inp
     Message from routine read_cards :
     DEPRECATED: no units specified in CELL_PARAMETERS card

     Current dimensions of program PWSCF are:
     Max number of different atomic species (ntypx) = 10
     Max number of k-points (npk) =  40000
     Max angular momentum in pseudopotentials (lmaxx) =  3

     IMPORTANT: XC functional enforced from input :
     Exchange-correlation      = PBE ( 1  4  3  4 0)
     Any further DFT definition will be discarded
     Please, verify this is what you really want


     Subspace diagonalization in iterative solution of the eigenvalue problem:
     a serial algorithm will be used

 
     Parallelization info
     --------------------
     sticks:   dense  smooth     PW     G-vecs:    dense   smooth      PW
     Min         902     442    116               196882    67284    9094
     Max         903     443    117               196889    67324    9105
     Sum       10831    5305   1393              2362617   807589  109161
 


     bravais-lattice index     =            0
     lattice parameter (alat)  =       1.8897  a.u.
     unit-cell volume          =   23261.3228 (a.u.)^3
     number of atoms/cell      =           48
     number of atomic types    =            4
     number of electrons       =       654.00
     number of Kohn-Sham states=          337
     kinetic-energy cutoff     =      40.4243  Ry
     charge density cutoff     =     330.7439  Ry
     convergence threshold     =      7.3E-07
     mixing beta               =       0.2000
     number of iterations used =            8  local-TF  mixing
     Exchange-correlation      = PBE ( 1  4  3  4 0)
     nstep                     =           50


     celldm(1)=   1.889726  celldm(2)=   0.000000  celldm(3)=   0.000000
     celldm(4)=   0.000000  celldm(5)=   0.000000  celldm(6)=   0.000000

     crystal axes: (cart. coord. in units of alat)
               a(1) = (  11.534892   0.000000   0.000000 )  
               a(2) = (  -5.767446   9.989509   0.000000 )  
               a(3) = (   0.000000   0.000000  29.914390 )  

     reciprocal axes: (cart. coord. in units 2 pi/alat)
               b(1) = (  0.086693  0.050053  0.000000 )  
               b(2) = (  0.000000  0.100105  0.000000 )  
               b(3) = (  0.000000  0.000000  0.033429 )  


     PseudoPot. # 1 for Au read from file:
     /gpfs/pace1/project/chbe-medford/medford-share/data/pseudos/SSSP_eff_PBE/Au.UPF
     MD5 check sum: 1009843a674e36925f098327e430af60
     Pseudo is Norm-conserving, Zval = 19.0
     Generated using ONCVPSP code by D. R. Hamann
     Using radial grid of  602 points,  8 beta functions with: 
                l(1) =   0
                l(2) =   0
                l(3) =   1
                l(4) =   1
                l(5) =   2
                l(6) =   2
                l(7) =   3
                l(8) =   3

     PseudoPot. # 2 for O  read from file:
     /gpfs/pace1/project/chbe-medford/medford-share/data/pseudos/SSSP_eff_PBE/O.UPF
     MD5 check sum: 734c27235a0248c51dbae37a1fbe46ec
     Pseudo is Ultrasoft + core correction, Zval =  6.0
     Generated by new atomic code, or converted to UPF format
     Using radial grid of  737 points,  5 beta functions with: 
                l(1) =   0
                l(2) =   0
                l(3) =   1
                l(4) =   1
                l(5) =   2
     Q(r) pseudized with  8 coefficients,  rinner =    0.900   0.900   0.900
                                                       0.900   0.900

     PseudoPot. # 3 for C  read from file:
     /gpfs/pace1/project/chbe-medford/medford-share/data/pseudos/SSSP_eff_PBE/C.UPF
     MD5 check sum: d1aef80898a10debaa0f26306b886e00
     Pseudo is Ultrasoft + core correction, Zval =  4.0
     Generated by new atomic code, or converted to UPF format
     Using radial grid of  721 points,  4 beta functions with: 
                l(1) =   0
                l(2) =   0
                l(3) =   1
                l(4) =   1
     Q(r) pseudized with  8 coefficients,  rinner =    1.100   1.100   1.100


     PseudoPot. # 4 for  H read from file:
     /gpfs/pace1/project/chbe-medford/medford-share/data/pseudos/SSSP_eff_PBE/H.UPF
     MD5 check sum: 36633979392af7100e6f6632747262d3
     Pseudo is Ultrasoft, Zval =  1.0
     Generated using "atomic" code by A. Dal Corso  v.5.0.99 svn rev. 10869
     Using radial grid of  929 points,  2 beta functions with: 
                l(1) =   0
                l(2) =   0
     Q(r) pseudized with 0 coefficients 


     atomic species   valence    mass     pseudopotential
        Au1           19.00   196.96650     Au( 1.00)
        O1             6.00    15.99940     O ( 1.00)
        C1             4.00    12.01100     C ( 1.00)
        H1             1.00     1.00794      H( 1.00)

     No symmetry found



   Cartesian axes

     site n.     atom                  positions (alat units)
         1           Au1 tau(   1) = (   0.0000000   0.0000000  10.0000000  )
         2           Au1 tau(   2) = (   1.4418614   0.8324591  12.3545499  )
         3           Au1 tau(   3) = (  -1.4418614   2.4973773  10.0000000  )
         4           Au1 tau(   4) = (   0.0000000   3.3298364  12.3545499  )
         5           Au1 tau(   5) = (  -2.8837229   4.9947545  10.0000000  )
         6           Au1 tau(   6) = (  -1.4418614   5.8272136  12.3545499  )
         7           Au1 tau(   7) = (  -4.3255843   7.4921318  10.0000000  )
         8           Au1 tau(   8) = (  -2.8837229   8.3245909  12.3545499  )
         9           Au1 tau(   9) = (   2.8837229   0.0000000  10.0000000  )
        10           Au1 tau(  10) = (   4.3255843   0.8324591  12.3545499  )
        11           Au1 tau(  11) = (   1.4418614   2.4973773  10.0000000  )
        12           Au1 tau(  12) = (   2.8837229   3.3298364  12.3545499  )
        13           Au1 tau(  13) = (   0.0000000   4.9947545  10.0000000  )
        14           Au1 tau(  14) = (   1.4418614   5.8272136  12.3545499  )
        15           Au1 tau(  15) = (  -1.4418614   7.4921318  10.0000000  )
        16           Au1 tau(  16) = (   0.0000000   8.3245909  12.3545499  )
        17           Au1 tau(  17) = (   5.7674458   0.0000000  10.0000000  )
        18           Au1 tau(  18) = (   7.2093072   0.8324591  12.3545499  )
        19           Au1 tau(  19) = (   4.3255843   2.4973773  10.0000000  )
        20           Au1 tau(  20) = (   5.7674458   3.3298364  12.3545499  )
        21           Au1 tau(  21) = (   2.8837229   4.9947545  10.0000000  )
        22           Au1 tau(  22) = (   4.3255843   5.8272136  12.3545499  )
        23           Au1 tau(  23) = (   1.4418614   7.4921318  10.0000000  )
        24           Au1 tau(  24) = (   2.8837229   8.3245909  12.3545499  )
        25           Au1 tau(  25) = (   8.6511686   0.0000000  10.0000000  )
        26           Au1 tau(  26) = (  10.0930301   0.8324591  12.3545499  )
        27           Au1 tau(  27) = (   7.2093072   2.4973773  10.0000000  )
        28           Au1 tau(  28) = (   8.6511686   3.3298364  12.3545499  )
        29           Au1 tau(  29) = (   5.7674458   4.9947545  10.0000000  )
        30           Au1 tau(  30) = (   7.2093072   5.8272136  12.3545499  )
        31           Au1 tau(  31) = (   4.3255843   7.4921318  10.0000000  )
        32           Au1 tau(  32) = (   5.7674458   8.3245909  12.3545499  )
        33           O1  tau(  33) = (   4.3772000   7.0728056  17.0062221  )
        34           O1  tau(  34) = (   4.3260000   2.4970000  14.8545499  )
        35           O1  tau(  35) = (   4.3769000   2.0518933  17.0810973  )
        36           C1  tau(  36) = (   4.3632000   4.7843101  17.7850125  )
        37           C1  tau(  37) = (   4.3583000   4.3632607  16.3190916  )
        38           C1  tau(  38) = (   4.3586000   6.2926773  17.9570439  )
        39           C1  tau(  39) = (   4.3251000   6.7983549  19.3759847  )
        40           C1  tau(  40) = (   4.3556000   2.8604018  16.1635194  )
        41           H1  tau(  41) = (   5.2535000   4.3886822  18.2870602  )
        42           H1  tau(  42) = (   3.4787000   4.3822707  18.2923652  )
        43           H1  tau(  43) = (   5.2471000   4.7580101  15.8137655  )
        44           H1  tau(  44) = (   3.4671000   4.7609197  15.8205260  )
        45           H1  tau(  45) = (   3.4124000   6.4516467  19.8669009  )
        46           H1  tau(  46) = (   5.2045000   6.4366997  19.9143897  )
        47           H1  tau(  47) = (   4.3346000   7.8918201  19.3784473  )
        48           H1  tau(  48) = (   4.3241000   1.5221262  14.7460809  )

     number of k points=     4  Fermi-Dirac smearing, width (Ry)=  0.0073
                       cart. coord. in units 2pi/alat
        k(    1) = (   0.0000000   0.0000000   0.0000000), wk =   0.5000000
        k(    2) = (   0.0000000  -0.0500525   0.0000000), wk =   0.5000000
        k(    3) = (   0.0433467  -0.0250263   0.0000000), wk =   0.5000000
        k(    4) = (  -0.0433467  -0.0250263   0.0000000), wk =   0.5000000

     Dense  grid:  2362617 G-vectors     FFT dimensions: ( 128, 128, 360)

     Smooth grid:   807589 G-vectors     FFT dimensions: (  90,  90, 240)

     Largest allocated arrays     est. size (Mb)     dimensions
        Kohn-Sham Wavefunctions        43.58 Mb     (    8475,  337)
        NL pseudopotentials           144.71 Mb     (    8475, 1119)
        Each V/rho on FFT grid          7.50 Mb     (  491520)
        Each G-vector array             1.50 Mb     (  196882)
        G-vector shells                 0.46 Mb     (   60517)
     Largest temporary arrays     est. size (Mb)     dimensions
        Auxiliary wavefunctions       174.32 Mb     (    8475, 1348)
        Each subspace H/S matrix       27.73 Mb     (    1348, 1348)
        Each <psi_i|beta_j> matrix      5.75 Mb     (    1119,  337)
        Arrays for rho mixing          60.00 Mb     (  491520,    8)

     Initial potential from superposition of free atoms
     Check: negative starting charge=   -0.002273

     starting charge  653.28105, renormalised to  654.00000

     negative rho (up, down):  2.276E-03 0.000E+00
     Starting wfc are   40 randomized atomic wfcs +  297 random wfc

     total cpu time spent up to now is       57.8 secs

     per-process dynamical memory:   517.0 Mb

     Self-consistent Calculation

     iteration #  1     ecut=    40.42 Ry     beta=0.20
     Davidson diagonalization with overlap
     ethr =  1.00E-02,  avg # of iterations = 12.0

     Threshold (ethr) on eigenvalues was too large:
     Diagonalizing with lowered threshold

     Davidson diagonalization with overlap
     ethr =  3.21E-04,  avg # of iterations =  2.0

     negative rho (up, down):  5.085E-05 0.000E+00

     total cpu time spent up to now is      795.2 secs

     total energy              =   -8954.73900864 Ry
     Harris-Foulkes estimate   =   -8954.97503021 Ry
     estimated scf accuracy    <       2.10834215 Ry

     iteration #  2     ecut=    40.42 Ry     beta=0.20
     Davidson diagonalization with overlap
     ethr =  3.22E-04,  avg # of iterations =  1.5

     negative rho (up, down):  2.278E-05 0.000E+00

     total cpu time spent up to now is      938.5 secs

     total energy              =   -8954.15607051 Ry
     Harris-Foulkes estimate   =   -8954.75626717 Ry
     estimated scf accuracy    <       1.42243367 Ry

     iteration #  3     ecut=    40.42 Ry     beta=0.20
     Davidson diagonalization with overlap
     ethr =  2.17E-04,  avg # of iterations =  4.8

     negative rho (up, down):  4.465E-06 0.000E+00

     total cpu time spent up to now is     1105.0 secs

     total energy              =   -8954.31431856 Ry
     Harris-Foulkes estimate   =   -8954.35880854 Ry
     estimated scf accuracy    <       0.23257591 Ry

     iteration #  4     ecut=    40.42 Ry     beta=0.20
     Davidson diagonalization with overlap
     ethr =  3.56E-05,  avg # of iterations =  3.0

     negative rho (up, down):  4.212E-06 0.000E+00

     total cpu time spent up to now is     1260.6 secs

     total energy              =   -8954.28762261 Ry
     Harris-Foulkes estimate   =   -8954.32924305 Ry
     estimated scf accuracy    <       0.12112190 Ry

     iteration #  5     ecut=    40.42 Ry     beta=0.20
     Davidson diagonalization with overlap
     ethr =  1.85E-05,  avg # of iterations =  2.0

     negative rho (up, down):  9.683E-07 0.000E+00

     total cpu time spent up to now is     1414.7 secs

     total energy              =   -8954.28485114 Ry
     Harris-Foulkes estimate   =   -8954.29617294 Ry
     estimated scf accuracy    <       0.04874069 Ry

     iteration #  6     ecut=    40.42 Ry     beta=0.20
     Davidson diagonalization with overlap
     ethr =  7.45E-06,  avg # of iterations =  3.0

     negative rho (up, down):  2.157E-05 0.000E+00

     total cpu time spent up to now is     1566.4 secs

     total energy              =   -8954.27922405 Ry
     Harris-Foulkes estimate   =   -8954.28622450 Ry
     estimated scf accuracy    <       0.02537616 Ry

     iteration #  7     ecut=    40.42 Ry     beta=0.20
     Davidson diagonalization with overlap
     ethr =  3.88E-06,  avg # of iterations = 10.5

     negative rho (up, down):  1.254E-02 0.000E+00

     total cpu time spent up to now is     1743.0 secs

     total energy              =   -8954.27743566 Ry
     Harris-Foulkes estimate   =   -8954.28018032 Ry
     estimated scf accuracy    <       0.01700792 Ry

     iteration #  8     ecut=    40.42 Ry     beta=0.20
     Davidson diagonalization with overlap
     ethr =  2.60E-06,  avg # of iterations =  3.0

     negative rho (up, down):  4.874E-02 0.000E+00

     total cpu time spent up to now is     1897.0 secs

     total energy              =   -8954.27830230 Ry
     Harris-Foulkes estimate   =   -8954.27792770 Ry
     estimated scf accuracy    <       0.00931686 Ry

     iteration #  9     ecut=    40.42 Ry     beta=0.20
     Davidson diagonalization with overlap
     ethr =  1.42E-06,  avg # of iterations =  3.0

     negative rho (up, down):  5.620E-02 0.000E+00

     total cpu time spent up to now is     2052.4 secs

     total energy              =   -8954.27770425 Ry
     Harris-Foulkes estimate   =   -8954.27905934 Ry
     estimated scf accuracy    <       0.00725576 Ry

     iteration # 10     ecut=    40.42 Ry     beta=0.20
     Davidson diagonalization with overlap
     ethr =  1.11E-06,  avg # of iterations =  3.0

     negative rho (up, down):  7.474E-02 0.000E+00

     total cpu time spent up to now is     2205.8 secs

     total energy              =   -8954.27809290 Ry
     Harris-Foulkes estimate   =   -8954.27811842 Ry
     estimated scf accuracy    <       0.00323953 Ry

     iteration # 11     ecut=    40.42 Ry     beta=0.20
     Davidson diagonalization with overlap
     ethr =  4.95E-07,  avg # of iterations =  3.0

     negative rho (up, down):  4.466E-02 0.000E+00

     total cpu time spent up to now is     2361.5 secs

     total energy              =   -8954.27704370 Ry
     Harris-Foulkes estimate   =   -8954.27817884 Ry
     estimated scf accuracy    <       0.00239839 Ry

     iteration # 12     ecut=    40.42 Ry     beta=0.20
     Davidson diagonalization with overlap
     ethr =  3.67E-07,  avg # of iterations =  3.0

     negative rho (up, down):  4.423E-02 0.000E+00

     total cpu time spent up to now is     2528.2 secs

     total energy              =   -8954.27723769 Ry
     Harris-Foulkes estimate   =   -8954.27731955 Ry
     estimated scf accuracy    <       0.00090076 Ry

     iteration # 13     ecut=    40.42 Ry     beta=0.20
     Davidson diagonalization with overlap
     ethr =  1.38E-07,  avg # of iterations =  2.0

     negative rho (up, down):  2.289E-02 0.000E+00

     total cpu time spent up to now is     2678.0 secs

     total energy              =   -8954.27676789 Ry
     Harris-Foulkes estimate   =   -8954.27724999 Ry
     estimated scf accuracy    <       0.00064650 Ry

     iteration # 14     ecut=    40.42 Ry     beta=0.20
     Davidson diagonalization with overlap
     ethr =  9.89E-08,  avg # of iterations =  3.0

     negative rho (up, down):  1.366E-02 0.000E+00

     total cpu time spent up to now is     2839.0 secs

     total energy              =   -8954.27666511 Ry
     Harris-Foulkes estimate   =   -8954.27679967 Ry
     estimated scf accuracy    <       0.00025512 Ry

     iteration # 15     ecut=    40.42 Ry     beta=0.20
     Davidson diagonalization with overlap
     ethr =  3.90E-08,  avg # of iterations =  3.0

     negative rho (up, down):  7.069E-03 0.000E+00

     total cpu time spent up to now is     2994.1 secs

     total energy              =   -8954.27659818 Ry
     Harris-Foulkes estimate   =   -8954.27667498 Ry
     estimated scf accuracy    <       0.00013823 Ry

     iteration # 16     ecut=    40.42 Ry     beta=0.20
     Davidson diagonalization with overlap
     ethr =  2.11E-08,  avg # of iterations =  3.0

     negative rho (up, down):  5.600E-03 0.000E+00

     total cpu time spent up to now is     3155.2 secs

     total energy              =   -8954.27660853 Ry
     Harris-Foulkes estimate   =   -8954.27660547 Ry
     estimated scf accuracy    <       0.00005599 Ry

     iteration # 17     ecut=    40.42 Ry     beta=0.20
     Davidson diagonalization with overlap
     ethr =  8.56E-09,  avg # of iterations =  3.0

     negative rho (up, down):  4.160E-03 0.000E+00

     total cpu time spent up to now is     3315.5 secs

     total energy              =   -8954.27662903 Ry
     Harris-Foulkes estimate   =   -8954.27660981 Ry
     estimated scf accuracy    <       0.00003340 Ry

     iteration # 18     ecut=    40.42 Ry     beta=0.20
     Davidson diagonalization with overlap
     ethr =  5.11E-09,  avg # of iterations =  2.0

     negative rho (up, down):  2.974E-03 0.000E+00

     total cpu time spent up to now is     3474.8 secs

     total energy              =   -8954.27665923 Ry
     Harris-Foulkes estimate   =   -8954.27662957 Ry
     estimated scf accuracy    <       0.00002057 Ry

     iteration # 19     ecut=    40.42 Ry     beta=0.20
     Davidson diagonalization with overlap
     ethr =  3.15E-09,  avg # of iterations =  3.0

     negative rho (up, down):  2.661E-03 0.000E+00

     total cpu time spent up to now is     3635.4 secs

     total energy              =   -8954.27666248 Ry
     Harris-Foulkes estimate   =   -8954.27666018 Ry
     estimated scf accuracy    <       0.00000917 Ry

     iteration # 20     ecut=    40.42 Ry     beta=0.20
     Davidson diagonalization with overlap
     ethr =  1.40E-09,  avg # of iterations =  3.0

     negative rho (up, down):  2.596E-03 0.000E+00

     total cpu time spent up to now is     3789.5 secs

     total energy              =   -8954.27667440 Ry
     Harris-Foulkes estimate   =   -8954.27666261 Ry
     estimated scf accuracy    <       0.00000595 Ry

     iteration # 21     ecut=    40.42 Ry     beta=0.20
     Davidson diagonalization with overlap
     ethr =  9.10E-10,  avg # of iterations =  4.0

     negative rho (up, down):  2.811E-03 0.000E+00

     total cpu time spent up to now is     3952.6 secs

     total energy              =   -8954.27667515 Ry
     Harris-Foulkes estimate   =   -8954.27667496 Ry
     estimated scf accuracy    <       0.00000122 Ry

     iteration # 22     ecut=    40.42 Ry     beta=0.20
     Davidson diagonalization with overlap
     ethr =  1.86E-10,  avg # of iterations =  3.0

     negative rho (up, down):  2.925E-03 0.000E+00

     total cpu time spent up to now is     4111.7 secs

     total energy              =   -8954.27667590 Ry
     Harris-Foulkes estimate   =   -8954.27667518 Ry
     estimated scf accuracy    <       0.00000078 Ry

     iteration # 23     ecut=    40.42 Ry     beta=0.20
     Davidson diagonalization with overlap
     ethr =  1.19E-10,  avg # of iterations =  4.0

     negative rho (up, down):  2.980E-03 0.000E+00

     total cpu time spent up to now is     4263.6 secs

     End of self-consistent calculation

          k = 0.0000 0.0000 0.0000 (100843 PWs)   bands (ev):

  -106.1977-106.1470-106.1298-106.1285-106.1272-106.1262-106.1259-106.1237
  -106.1234-106.1224-106.1217-106.1212-106.1209-106.1199-106.1188-106.1187
  -106.1185-106.1183-106.1173-106.1173-106.1170-106.1161-106.1158-106.1154
  -106.1146-106.1142-106.1140-106.1128-106.1125-106.1119-106.1102-106.1089
   -57.5883 -57.5881 -57.5742 -57.5651 -57.5623 -57.5590 -57.5490 -57.5471
   -57.5407 -57.5395 -57.5377 -57.5368 -57.5359 -57.5344 -57.5328 -57.5324
   -57.5303 -57.5301 -57.5028 -57.5019 -57.4910 -57.4906 -57.4886 -57.4872
   -57.4827 -57.4826 -57.4814 -57.4792 -57.4784 -57.4770 -57.4758 -57.4748
   -57.4747 -57.4733 -57.4728 -57.4718 -57.4638 -57.4631 -57.4605 -57.4595
   -57.4591 -57.4585 -57.4521 -57.4505 -57.4496 -57.4329 -57.4326 -57.4276
   -57.4273 -57.4261 -57.4255 -57.4252 -57.4241 -57.4221 -57.4101 -57.4081
   -57.4073 -57.4049 -57.4048 -57.4035 -57.4025 -57.4021 -57.4016 -57.3859
   -57.3859 -57.3640 -57.3483 -57.3417 -57.3411 -57.3404 -57.3377 -57.3294
   -57.3160 -57.3112 -57.3088 -57.3082 -57.3074 -57.3047 -57.3039 -57.3030
   -57.2918 -57.2770 -57.2733 -57.2722 -57.2718 -57.2713 -57.2678 -57.2676
   -57.2661 -57.2635 -57.2602 -57.2583 -57.2576 -57.2575 -57.2568 -57.2539
   -23.6582 -21.7378 -21.3289 -15.9409 -14.5559 -13.0509 -11.0151  -9.2096
    -8.8854  -8.1774  -8.1725  -7.8452  -7.7262  -7.6615  -7.6596  -7.6570
    -7.6562  -7.6541  -7.6001  -7.1088  -7.0707  -7.0701  -7.0693  -7.0325
    -7.0308  -7.0246  -6.8325  -6.6176  -6.6061  -6.6048  -6.6039  -6.6029
    -6.6020  -6.5427  -6.4201  -6.4167  -6.4060  -6.3732  -6.3729  -6.3707
    -6.3687  -6.3667  -6.3665  -6.1743  -5.9795  -5.9741  -5.9736  -5.9697
    -5.9688  -5.9667  -5.9637  -5.9608  -5.9604  -5.9580  -5.9575  -5.9561
    -5.7446  -5.7258  -5.7256  -5.7242  -5.7235  -5.7214  -5.6075  -5.3109
    -5.3087  -5.2971  -5.2011  -5.1887  -5.1885  -5.1860  -5.1847  -5.1839
    -5.1174  -5.0404  -5.0275  -5.0189  -5.0163  -5.0150  -5.0117  -5.0087
    -5.0086  -4.9783  -4.9650  -4.9481  -4.9320  -4.9268  -4.9242  -4.9222
    -4.8951  -4.8843  -4.8828  -4.8661  -4.7751  -4.7745  -4.7713  -4.7682
    -4.7664  -4.7662  -4.7176  -4.7151  -4.7129  -4.7092  -4.7086  -4.6804
    -4.5155  -4.5126  -4.5087  -4.5067  -4.5056  -4.4955  -4.4941  -4.4900
    -4.4884  -4.4883  -4.4875  -4.4495  -4.4355  -4.4173  -4.4150  -4.4148
    -4.2528  -4.2520  -4.2481  -4.2459  -4.2456  -4.2432  -3.9322  -3.8792
    -3.8769  -3.8751  -3.8745  -3.8723  -3.8675  -3.6390  -3.6134  -3.6130
    -3.6087  -3.5934  -3.5885  -3.5757  -3.5654  -3.5577  -3.5250  -3.5247
    -3.5026  -3.5022  -3.4989  -3.4988  -3.4969  -3.4968  -3.4264  -3.4191
    -3.4163  -3.4157  -3.4148  -3.4085  -3.2466  -3.2265  -3.2236  -3.2227
    -3.2191  -3.2081  -3.1261  -3.1176  -3.0944  -3.0445  -2.9581  -2.9573
    -2.9521  -2.8020  -2.8004  -2.7887  -2.7879  -2.7866  -2.7856  -2.7853
    -2.7837  -2.6078  -2.5966  -2.5920  -2.5916  -2.5906  -2.5812  -2.4405
    -2.3884  -2.3873  -2.3852  -2.2723  -2.2710  -2.2692  -1.6726  -1.6453
    -1.6434  -1.6403  -1.6311  -1.5711  -1.5321  -0.3694  -0.3690  -0.3686
    -0.3672  -0.3643  -0.3573  -0.1332  -0.0968  -0.0922  -0.0490   0.7976
     0.8022

          k = 0.0000-0.0501 0.0000 (100960 PWs)   bands (ev):

  -106.1977-106.1470-106.1294-106.1287-106.1281-106.1259-106.1256-106.1237
  -106.1233-106.1229-106.1215-106.1211-106.1201-106.1200-106.1198-106.1186
  -106.1182-106.1182-106.1175-106.1172-106.1168-106.1163-106.1159-106.1153
  -106.1145-106.1143-106.1140-106.1129-106.1125-106.1118-106.1102-106.1089
   -57.5840 -57.5813 -57.5608 -57.5602 -57.5570 -57.5529 -57.5478 -57.5461
   -57.5456 -57.5444 -57.5437 -57.5428 -57.5409 -57.5329 -57.5293 -57.5289
   -57.5265 -57.5214 -57.5208 -57.5207 -57.5139 -57.5133 -57.5101 -57.5098
   -57.5033 -57.4996 -57.4858 -57.4792 -57.4758 -57.4711 -57.4664 -57.4633
   -57.4623 -57.4621 -57.4601 -57.4579 -57.4502 -57.4496 -57.4467 -57.4465
   -57.4447 -57.4436 -57.4410 -57.4391 -57.4381 -57.4370 -57.4344 -57.4279
   -57.4266 -57.4263 -57.4254 -57.4239 -57.4220 -57.4219 -57.4201 -57.4172
   -57.4162 -57.4141 -57.4113 -57.4080 -57.4051 -57.4041 -57.4029 -57.3931
   -57.3899 -57.3602 -57.3536 -57.3464 -57.3442 -57.3320 -57.3271 -57.3257
   -57.3229 -57.3184 -57.3140 -57.3086 -57.3072 -57.3050 -57.3048 -57.2937
   -57.2863 -57.2825 -57.2793 -57.2714 -57.2708 -57.2684 -57.2675 -57.2673
   -57.2642 -57.2629 -57.2608 -57.2602 -57.2588 -57.2569 -57.2560 -57.2537
   -23.6582 -21.7378 -21.3289 -15.9409 -14.5559 -13.0509 -11.0150  -8.8869
    -8.7452  -8.7342  -8.1772  -8.1683  -7.9288  -7.9093  -7.7577  -7.2952
    -7.2901  -7.1335  -7.1304  -7.1070  -6.9747  -6.9691  -6.9684  -6.9623
    -6.8468  -6.8154  -6.8067  -6.7805  -6.7778  -6.7770  -6.7714  -6.6362
    -6.6330  -6.6310  -6.6307  -6.5757  -6.5643  -6.5384  -6.3039  -6.3017
    -6.2986  -6.2985  -6.2786  -6.2676  -6.2659  -6.2629  -6.2243  -6.2194
    -6.1984  -6.1935  -6.1600  -6.0445  -6.0365  -5.9596  -5.9584  -5.9551
    -5.9540  -5.9465  -5.9415  -5.6384  -5.5735  -5.5641  -5.4227  -5.4123
    -5.2603  -5.2570  -5.2063  -5.1975  -5.1961  -5.1888  -5.1832  -5.1779
    -5.1545  -5.1476  -5.1043  -5.0940  -5.0928  -5.0922  -5.0867  -5.0858
    -5.0362  -5.0338  -5.0058  -4.9718  -4.9687  -4.9453  -4.9391  -4.9387
    -4.9279  -4.9231  -4.9216  -4.8800  -4.8694  -4.7155  -4.7091  -4.6999
    -4.6985  -4.6952  -4.6695  -4.6461  -4.6399  -4.6386  -4.6357  -4.6168
    -4.6104  -4.5510  -4.5325  -4.4383  -4.4158  -4.4125  -4.3490  -4.3382
    -4.3279  -4.3246  -4.2670  -4.2657  -4.2627  -4.2619  -4.2333  -4.2327
    -4.0606  -4.0492  -3.9759  -3.9735  -3.9211  -3.9091  -3.9077  -3.8978
    -3.8961  -3.8875  -3.8816  -3.7257  -3.7219  -3.6217  -3.6142  -3.6093
    -3.6041  -3.6020  -3.5732  -3.4870  -3.4864  -3.4826  -3.4656  -3.4652
    -3.4627  -3.4472  -3.4330  -3.3313  -3.3292  -3.2830  -3.2762  -3.1955
    -3.1861  -3.1839  -3.1773  -3.1336  -3.1315  -3.1260  -3.1242  -3.0645
    -3.0610  -3.0492  -3.0343  -3.0306  -3.0252  -3.0082  -3.0032  -2.9106
    -2.9027  -2.8595  -2.8508  -2.8398  -2.8366  -2.8323  -2.8301  -2.7855
    -2.7783  -2.7780  -2.7723  -2.7209  -2.7166  -2.6946  -2.6891  -2.6053
    -2.5789  -2.5735  -2.5704  -2.5602  -2.4728  -2.4474  -2.4446  -2.4432
    -2.4422  -2.3121  -1.8481  -1.8285  -1.5666  -0.6700  -0.6550  -0.6365
    -0.6038  -0.3748  -0.3727  -0.3687  -0.3620  -0.2193  -0.1830   0.8259
     0.8725

          k = 0.0433-0.0250 0.0000 (100960 PWs)   bands (ev):

  -106.1977-106.1470-106.1293-106.1291-106.1274-106.1265-106.1252-106.1242
  -106.1233-106.1223-106.1214-106.1213-106.1208-106.1199-106.1190-106.1187
  -106.1183-106.1183-106.1174-106.1172-106.1168-106.1163-106.1160-106.1152
  -106.1146-106.1142-106.1141-106.1129-106.1126-106.1118-106.1102-106.1089
   -57.5846 -57.5809 -57.5608 -57.5596 -57.5574 -57.5519 -57.5487 -57.5474
   -57.5453 -57.5448 -57.5439 -57.5425 -57.5391 -57.5332 -57.5299 -57.5294
   -57.5268 -57.5217 -57.5208 -57.5201 -57.5141 -57.5123 -57.5109 -57.5095
   -57.5024 -57.5001 -57.4840 -57.4793 -57.4762 -57.4730 -57.4669 -57.4642
   -57.4625 -57.4606 -57.4600 -57.4575 -57.4510 -57.4500 -57.4469 -57.4455
   -57.4435 -57.4422 -57.4419 -57.4407 -57.4384 -57.4369 -57.4338 -57.4277
   -57.4274 -57.4266 -57.4249 -57.4243 -57.4216 -57.4208 -57.4201 -57.4170
   -57.4164 -57.4137 -57.4126 -57.4080 -57.4055 -57.4040 -57.4027 -57.3933
   -57.3898 -57.3589 -57.3550 -57.3491 -57.3403 -57.3328 -57.3269 -57.3256
   -57.3215 -57.3190 -57.3168 -57.3097 -57.3082 -57.3046 -57.2976 -57.2961
   -57.2906 -57.2799 -57.2765 -57.2741 -57.2724 -57.2682 -57.2673 -57.2660
   -57.2634 -57.2629 -57.2617 -57.2608 -57.2579 -57.2572 -57.2560 -57.2536
   -23.6582 -21.7378 -21.3289 -15.9409 -14.5559 -13.0509 -11.0150  -8.8868
    -8.7448  -8.7336  -8.1756  -8.1708  -7.9398  -7.9072  -7.7470  -7.2950
    -7.2908  -7.1465  -7.1309  -7.0939  -6.9737  -6.9703  -6.9685  -6.9644
    -6.8456  -6.8136  -6.8096  -6.7804  -6.7767  -6.7762  -6.7727  -6.6412
    -6.6340  -6.6321  -6.6291  -6.5757  -6.5650  -6.5308  -6.3027  -6.3012
    -6.2992  -6.2981  -6.2745  -6.2705  -6.2658  -6.2634  -6.2276  -6.2189
    -6.1955  -6.1913  -6.1690  -6.0406  -6.0361  -5.9610  -5.9578  -5.9565
    -5.9551  -5.9465  -5.9427  -5.6308  -5.5723  -5.5636  -5.4186  -5.4141
    -5.2599  -5.2577  -5.2039  -5.2009  -5.1954  -5.1925  -5.1847  -5.1739
    -5.1552  -5.1488  -5.1027  -5.0955  -5.0936  -5.0921  -5.0867  -5.0854
    -5.0327  -5.0307  -5.0099  -4.9777  -4.9666  -4.9472  -4.9422  -4.9320
    -4.9296  -4.9239  -4.9191  -4.8775  -4.8733  -4.7157  -4.7090  -4.7007
    -4.6972  -4.6963  -4.6859  -4.6462  -4.6411  -4.6364  -4.6313  -4.6169
    -4.6100  -4.5489  -4.5335  -4.4395  -4.4157  -4.4085  -4.3466  -4.3375
    -4.3284  -4.3206  -4.2690  -4.2644  -4.2638  -4.2619  -4.2343  -4.2283
    -4.0634  -4.0462  -3.9812  -3.9740  -3.9415  -3.9128  -3.9010  -3.8999
    -3.8893  -3.8852  -3.8675  -3.7336  -3.7220  -3.6226  -3.6140  -3.6089
    -3.6053  -3.6039  -3.5927  -3.4896  -3.4823  -3.4775  -3.4634  -3.4626
    -3.4599  -3.4456  -3.4218  -3.3335  -3.3261  -3.2851  -3.2682  -3.1916
    -3.1880  -3.1838  -3.1820  -3.1359  -3.1300  -3.1248  -3.1243  -3.0658
    -3.0609  -3.0431  -3.0364  -3.0308  -3.0297  -3.0089  -3.0030  -2.9132
    -2.9043  -2.8614  -2.8513  -2.8364  -2.8354  -2.8330  -2.8254  -2.7867
    -2.7779  -2.7752  -2.7741  -2.7217  -2.7162  -2.6945  -2.6888  -2.5954
    -2.5832  -2.5794  -2.5740  -2.5529  -2.4735  -2.4479  -2.4452  -2.4429
    -2.4419  -2.3210  -1.8590  -1.8088  -1.5670  -0.6732  -0.6490  -0.6380
    -0.6046  -0.3760  -0.3691  -0.3679  -0.3664  -0.2132  -0.1958   0.8220
     0.8683

          k =-0.0433-0.0250 0.0000 (100960 PWs)   bands (ev):

  -106.1977-106.1470-106.1293-106.1291-106.1274-106.1264-106.1253-106.1242
  -106.1233-106.1223-106.1214-106.1213-106.1208-106.1199-106.1190-106.1187
  -106.1184-106.1183-106.1174-106.1173-106.1168-106.1163-106.1160-106.1152
  -106.1146-106.1142-106.1141-106.1129-106.1126-106.1118-106.1102-106.1089
   -57.5845 -57.5809 -57.5608 -57.5596 -57.5573 -57.5519 -57.5487 -57.5474
   -57.5453 -57.5448 -57.5439 -57.5425 -57.5391 -57.5332 -57.5299 -57.5294
   -57.5268 -57.5217 -57.5208 -57.5201 -57.5141 -57.5123 -57.5109 -57.5095
   -57.5024 -57.5001 -57.4840 -57.4793 -57.4762 -57.4731 -57.4669 -57.4643
   -57.4625 -57.4605 -57.4600 -57.4575 -57.4510 -57.4500 -57.4469 -57.4455
   -57.4435 -57.4422 -57.4418 -57.4407 -57.4383 -57.4368 -57.4338 -57.4277
   -57.4274 -57.4266 -57.4249 -57.4243 -57.4216 -57.4207 -57.4201 -57.4170
   -57.4163 -57.4137 -57.4126 -57.4080 -57.4055 -57.4040 -57.4026 -57.3933
   -57.3898 -57.3589 -57.3550 -57.3491 -57.3403 -57.3328 -57.3269 -57.3256
   -57.3215 -57.3191 -57.3168 -57.3097 -57.3082 -57.3045 -57.2978 -57.2960
   -57.2906 -57.2799 -57.2766 -57.2740 -57.2724 -57.2682 -57.2673 -57.2660
   -57.2633 -57.2629 -57.2618 -57.2608 -57.2578 -57.2573 -57.2560 -57.2536
   -23.6582 -21.7378 -21.3289 -15.9409 -14.5559 -13.0509 -11.0150  -8.8868
    -8.7448  -8.7335  -8.1773  -8.1690  -7.9399  -7.9073  -7.7469  -7.2949
    -7.2910  -7.1456  -7.1309  -7.0950  -6.9735  -6.9702  -6.9685  -6.9644
    -6.8457  -6.8135  -6.8095  -6.7805  -6.7766  -6.7762  -6.7728  -6.6411
    -6.6341  -6.6321  -6.6291  -6.5756  -6.5649  -6.5309  -6.3027  -6.3013
    -6.2992  -6.2981  -6.2743  -6.2698  -6.2660  -6.2635  -6.2286  -6.2187
    -6.1961  -6.1912  -6.1687  -6.0405  -6.0360  -5.9608  -5.9579  -5.9564
    -5.9549  -5.9465  -5.9427  -5.6311  -5.5723  -5.5636  -5.4186  -5.4140
    -5.2599  -5.2577  -5.2040  -5.2005  -5.1954  -5.1925  -5.1849  -5.1740
    -5.1553  -5.1487  -5.1028  -5.0955  -5.0936  -5.0921  -5.0866  -5.0854
    -5.0327  -5.0302  -5.0102  -4.9769  -4.9668  -4.9486  -4.9407  -4.9336
    -4.9277  -4.9238  -4.9196  -4.8790  -4.8721  -4.7157  -4.7090  -4.7006
    -4.6973  -4.6964  -4.6856  -4.6462  -4.6411  -4.6365  -4.6313  -4.6169
    -4.6100  -4.5489  -4.5335  -4.4394  -4.4157  -4.4089  -4.3466  -4.3375
    -4.3287  -4.3207  -4.2688  -4.2644  -4.2639  -4.2619  -4.2343  -4.2282
    -4.0633  -4.0471  -3.9796  -3.9740  -3.9401  -3.9128  -3.9012  -3.8999
    -3.8890  -3.8852  -3.8688  -3.7334  -3.7229  -3.6226  -3.6139  -3.6088
    -3.6049  -3.6040  -3.5931  -3.4896  -3.4822  -3.4782  -3.4633  -3.4625
    -3.4600  -3.4467  -3.4215  -3.3333  -3.3260  -3.2852  -3.2674  -3.1913
    -3.1881  -3.1837  -3.1821  -3.1359  -3.1302  -3.1247  -3.1242  -3.0658
    -3.0609  -3.0429  -3.0364  -3.0307  -3.0296  -3.0090  -3.0032  -2.9132
    -2.9044  -2.8615  -2.8513  -2.8363  -2.8353  -2.8330  -2.8254  -2.7867
    -2.7779  -2.7751  -2.7740  -2.7217  -2.7162  -2.6946  -2.6888  -2.5947
    -2.5832  -2.5794  -2.5739  -2.5542  -2.4731  -2.4478  -2.4451  -2.4429
    -2.4419  -2.3207  -1.8589  -1.8091  -1.5669  -0.6731  -0.6489  -0.6383
    -0.6047  -0.3760  -0.3690  -0.3679  -0.3665  -0.2134  -0.1956   0.8223
     0.8681

     the Fermi energy is    -0.6221 ev

!    total energy              =   -8954.27667580 Ry
     Harris-Foulkes estimate   =   -8954.27667600 Ry
     estimated scf accuracy    <       0.00000036 Ry

     The total energy is the sum of the following terms:

     one-electron contribution =  -82923.57468813 Ry
     hartree contribution      =   41290.71511791 Ry
     xc contribution           =    -856.13470797 Ry
     ewald contribution        =   33534.76722612 Ry
     smearing contrib. (-TS)   =      -0.04962373 Ry

     convergence has been achieved in  23 iterations

     Forces acting on atoms (Ry/au):


     negative rho (up, down):  2.980E-03 0.000E+00
     atom    1 type  1   force =    -0.00007962   -0.00017750   -0.03269682
     atom    2 type  1   force =    -0.00000027   -0.00016994    0.03281771
     atom    3 type  1   force =     0.00000025    0.00017821   -0.03320090
     atom    4 type  1   force =    -0.00013068   -0.00023276    0.03303539
     atom    5 type  1   force =    -0.00003243   -0.00008262   -0.03328313
     atom    6 type  1   force =     0.00000052    0.00004791    0.03285630
     atom    7 type  1   force =    -0.00015665   -0.00008034   -0.03287646
     atom    8 type  1   force =    -0.00033619   -0.00002089    0.03346774
     atom    9 type  1   force =     0.00031992    0.00054270   -0.03431185
     atom   10 type  1   force =    -0.00001424   -0.01179861    0.02024455
     atom   11 type  1   force =    -0.00003788   -0.00008949   -0.03254729
     atom   12 type  1   force =    -0.00637634    0.00339962    0.02670375
     atom   13 type  1   force =     0.00003086   -0.00008298   -0.03327237
     atom   14 type  1   force =     0.00035757    0.00011216    0.03330347
     atom   15 type  1   force =    -0.00000129   -0.00018921   -0.03281591
     atom   16 type  1   force =     0.00034008   -0.00002275    0.03346829
     atom   17 type  1   force =    -0.00032000    0.00054154   -0.03430166
     atom   18 type  1   force =     0.00002521   -0.00017707    0.03280444
     atom   19 type  1   force =    -0.00000191   -0.00072446   -0.03293772
     atom   20 type  1   force =     0.00637052    0.00338901    0.02667641
     atom   21 type  1   force =     0.00043505    0.00015716   -0.03229468
     atom   22 type  1   force =    -0.00001246    0.00067604    0.03182083
     atom   23 type  1   force =     0.00015666   -0.00007845   -0.03289260
     atom   24 type  1   force =    -0.00030121   -0.00006197    0.03284776
     atom   25 type  1   force =     0.00007929   -0.00017818   -0.03270618
     atom   26 type  1   force =     0.00000349    0.00023623    0.03294744
     atom   27 type  1   force =     0.00003731   -0.00008593   -0.03254882
     atom   28 type  1   force =     0.00011831   -0.00023369    0.03304606
     atom   29 type  1   force =    -0.00043389    0.00015538   -0.03229638
     atom   30 type  1   force =    -0.00034879    0.00010195    0.03330595
     atom   31 type  1   force =     0.00000096   -0.00011401   -0.03339894
     atom   32 type  1   force =     0.00029843   -0.00005583    0.03285237
     atom   33 type  2   force =     0.00006415   -0.01739560    0.00993049
     atom   34 type  2   force =    -0.00049784    0.01666713    0.00209982
     atom   35 type  2   force =    -0.00041805    0.01130705   -0.02015617
     atom   36 type  3   force =    -0.00060357    0.01052136   -0.02109491
     atom   37 type  3   force =    -0.00003853   -0.01120898    0.01650887
     atom   38 type  3   force =    -0.00041385    0.02068682   -0.01687510
     atom   39 type  3   force =     0.00107110    0.01089070   -0.00904366
     atom   40 type  3   force =     0.00074940   -0.01609778    0.03507951
     atom   41 type  4   force =    -0.00006375   -0.00626189    0.00936592
     atom   42 type  4   force =     0.00051148   -0.00617689    0.00951729
     atom   43 type  4   force =    -0.00196573    0.00559571   -0.00972314
     atom   44 type  4   force =     0.00202466    0.00557223   -0.00988515
     atom   45 type  4   force =    -0.00237791   -0.00692197    0.01030360
     atom   46 type  4   force =     0.00171304   -0.00711391    0.01077740
     atom   47 type  4   force =    -0.00009077    0.00281125   -0.00119110
     atom   48 type  4   force =     0.00034557   -0.00775647    0.01056958

     Total force =     0.198175     Total SCF correction =     0.001224
 !ASE

     Writing output data file calc.save
     Check: negative starting charge=   -0.002273
     NEW-OLD atomic charge density approx. for the potential
     Check: negative starting charge=   -0.002256

     negative rho (up, down):  3.963E-03 0.000E+00

     total cpu time spent up to now is     4309.4 secs

     per-process dynamical memory:   554.0 Mb

     Self-consistent Calculation

     iteration #  1     ecut=    40.42 Ry     beta=0.20
     Davidson diagonalization with overlap
     ethr =  1.19E-10,  avg # of iterations = 13.5

     negative rho (up, down):  3.070E-03 0.000E+00

     total cpu time spent up to now is     5011.2 secs

     total energy              =   -8954.26180851 Ry
     Harris-Foulkes estimate   =   -8954.27089261 Ry
     estimated scf accuracy    <       0.07904686 Ry

     iteration #  2     ecut=    40.42 Ry     beta=0.20
     Davidson diagonalization with overlap
     ethr =  1.21E-05,  avg # of iterations =  1.0

     negative rho (up, down):  4.202E-03 0.000E+00

     total cpu time spent up to now is     5169.9 secs

     total energy              =   -8954.23675085 Ry
     Harris-Foulkes estimate   =   -8954.26219237 Ry
     estimated scf accuracy    <       0.05381094 Ry

     iteration #  3     ecut=    40.42 Ry     beta=0.20
     Davidson diagonalization with overlap
     ethr =  8.23E-06,  avg # of iterations =  3.0

     negative rho (up, down):  3.206E-03 0.000E+00

     total cpu time spent up to now is     5346.6 secs

     total energy              =   -8954.24481460 Ry
     Harris-Foulkes estimate   =   -8954.24491150 Ry
     estimated scf accuracy    <       0.00419254 Ry

     iteration #  4     ecut=    40.42 Ry     beta=0.20
     Davidson diagonalization with overlap
     ethr =  6.41E-07,  avg # of iterations =  2.0

     negative rho (up, down):  2.281E-03 0.000E+00

     total cpu time spent up to now is     5512.6 secs

     total energy              =   -8954.24402916 Ry
     Harris-Foulkes estimate   =   -8954.24491014 Ry
     estimated scf accuracy    <       0.00336970 Ry

     iteration #  5     ecut=    40.42 Ry     beta=0.20
     Davidson diagonalization with overlap
     ethr =  5.15E-07,  avg # of iterations =  3.0

     negative rho (up, down):  1.826E-03 0.000E+00

     total cpu time spent up to now is     5689.7 secs

     total energy              =   -8954.24432288 Ry
     Harris-Foulkes estimate   =   -8954.24432323 Ry
     estimated scf accuracy    <       0.00105710 Ry

     iteration #  6     ecut=    40.42 Ry     beta=0.20
     Davidson diagonalization with overlap
     ethr =  1.62E-07,  avg # of iterations =  2.0

     negative rho (up, down):  1.059E-03 0.000E+00

     total cpu time spent up to now is     5844.8 secs

     total energy              =   -8954.24413247 Ry
     Harris-Foulkes estimate   =   -8954.24433209 Ry
     estimated scf accuracy    <       0.00096752 Ry

     iteration #  7     ecut=    40.42 Ry     beta=0.20
     Davidson diagonalization with overlap
     ethr =  1.48E-07,  avg # of iterations =  3.0

     negative rho (up, down):  9.265E-04 0.000E+00

     total cpu time spent up to now is     6017.3 secs

     total energy              =   -8954.24412721 Ry
     Harris-Foulkes estimate   =   -8954.24417896 Ry
     estimated scf accuracy    <       0.00048073 Ry

     iteration #  8     ecut=    40.42 Ry     beta=0.20
     Davidson diagonalization with overlap
     ethr =  7.35E-08,  avg # of iterations =  3.0

     negative rho (up, down):  1.125E-03 0.000E+00

     total cpu time spent up to now is     6180.6 secs

     total energy              =   -8954.24407599 Ry
     Harris-Foulkes estimate   =   -8954.24414192 Ry
     estimated scf accuracy    <       0.00038286 Ry

     iteration #  9     ecut=    40.42 Ry     beta=0.20
     Davidson diagonalization with overlap
     ethr =  5.85E-08,  avg # of iterations =  3.0

     negative rho (up, down):  1.194E-03 0.000E+00

     total cpu time spent up to now is     6346.5 secs

     total energy              =   -8954.24407222 Ry
     Harris-Foulkes estimate   =   -8954.24409607 Ry
     estimated scf accuracy    <       0.00026510 Ry

     iteration # 10     ecut=    40.42 Ry     beta=0.20
     Davidson diagonalization with overlap
     ethr =  4.05E-08,  avg # of iterations =  2.0

     negative rho (up, down):  3.559E-03 0.000E+00

     total cpu time spent up to now is     6493.2 secs

     total energy              =   -8954.24397391 Ry
     Harris-Foulkes estimate   =   -8954.24407411 Ry
     estimated scf accuracy    <       0.00021406 Ry

     iteration # 11     ecut=    40.42 Ry     beta=0.20
     Davidson diagonalization with overlap
     ethr =  3.27E-08,  avg # of iterations =  3.0

     negative rho (up, down):  3.277E-03 0.000E+00

     total cpu time spent up to now is     6656.8 secs

     total energy              =   -8954.24398713 Ry
     Harris-Foulkes estimate   =   -8954.24399381 Ry
     estimated scf accuracy    <       0.00008455 Ry

     iteration # 12     ecut=    40.42 Ry     beta=0.20
     Davidson diagonalization with overlap
     ethr =  1.29E-08,  avg # of iterations =  2.0

     negative rho (up, down):  2.833E-03 0.000E+00

     total cpu time spent up to now is     6810.8 secs

     total energy              =   -8954.24396788 Ry
     Harris-Foulkes estimate   =   -8954.24398873 Ry
     estimated scf accuracy    <       0.00007429 Ry

     iteration # 13     ecut=    40.42 Ry     beta=0.20
     Davidson diagonalization with overlap
     ethr =  1.14E-08,  avg # of iterations =  3.0

     negative rho (up, down):  2.719E-03 0.000E+00

     total cpu time spent up to now is     6986.5 secs

     total energy              =   -8954.24397408 Ry
     Harris-Foulkes estimate   =   -8954.24397677 Ry
     estimated scf accuracy    <       0.00001953 Ry

     iteration # 14     ecut=    40.42 Ry     beta=0.20
     Davidson diagonalization with overlap
     ethr =  2.99E-09,  avg # of iterations =  2.0

     negative rho (up, down):  2.595E-03 0.000E+00

     total cpu time spent up to now is     7148.2 secs

     total energy              =   -8954.24396839 Ry
     Harris-Foulkes estimate   =   -8954.24397463 Ry
     estimated scf accuracy    <       0.00001495 Ry

     iteration # 15     ecut=    40.42 Ry     beta=0.20
     Davidson diagonalization with overlap
     ethr =  2.29E-09,  avg # of iterations =  3.0

     negative rho (up, down):  2.634E-03 0.000E+00

     total cpu time spent up to now is     7307.5 secs

     total energy              =   -8954.24396801 Ry
     Harris-Foulkes estimate   =   -8954.24396964 Ry
     estimated scf accuracy    <       0.00000461 Ry

     iteration # 16     ecut=    40.42 Ry     beta=0.20
     Davidson diagonalization with overlap
     ethr =  7.05E-10,  avg # of iterations =  3.0

     negative rho (up, down):  2.751E-03 0.000E+00

     total cpu time spent up to now is     7477.0 secs

     total energy              =   -8954.24396744 Ry
     Harris-Foulkes estimate   =   -8954.24396822 Ry
     estimated scf accuracy    <       0.00000300 Ry

     iteration # 17     ecut=    40.42 Ry     beta=0.20
     Davidson diagonalization with overlap
     ethr =  4.58E-10,  avg # of iterations =  3.0

     negative rho (up, down):  2.794E-03 0.000E+00

     total cpu time spent up to now is     7641.5 secs

     total energy              =   -8954.24396713 Ry
     Harris-Foulkes estimate   =   -8954.24396765 Ry
     estimated scf accuracy    <       0.00000111 Ry

     iteration # 18     ecut=    40.42 Ry     beta=0.20
     Davidson diagonalization with overlap
     ethr =  1.70E-10,  avg # of iterations =  3.0

     negative rho (up, down):  3.081E-03 0.000E+00

     total cpu time spent up to now is     7782.8 secs

     End of self-consistent calculation

          k = 0.0000 0.0000 0.0000 (100843 PWs)   bands (ev):

  -106.0408-105.9887-105.9520-105.9502-105.9492-105.9491-105.9486-105.9470
  -105.9449-105.9444-105.9434-105.9429-105.9425-105.9425-105.9413-105.9408
  -105.9403-105.9397-105.9394-105.9390-105.9387-105.9375-105.9373-105.9370
  -105.9365-105.9347-105.9346-105.9333-105.9330-105.9327-105.9320-105.9305
   -57.4216 -57.4199 -57.3964 -57.3933 -57.3880 -57.3851 -57.3757 -57.3738
   -57.3631 -57.3629 -57.3617 -57.3603 -57.3587 -57.3566 -57.3553 -57.3547
   -57.3536 -57.3531 -57.3317 -57.3302 -57.3133 -57.3132 -57.3096 -57.3084
   -57.3068 -57.3056 -57.3040 -57.3039 -57.3016 -57.3007 -57.2995 -57.2987
   -57.2984 -57.2972 -57.2964 -57.2959 -57.2925 -57.2920 -57.2900 -57.2891
   -57.2881 -57.2871 -57.2736 -57.2723 -57.2690 -57.2590 -57.2587 -57.2568
   -57.2526 -57.2525 -57.2474 -57.2471 -57.2457 -57.2451 -57.2402 -57.2367
   -57.2360 -57.2345 -57.2340 -57.2338 -57.2249 -57.2245 -57.2243 -57.2153
   -57.2150 -57.1522 -57.1337 -57.1225 -57.1197 -57.1191 -57.1179 -57.1148
   -57.1078 -57.1003 -57.0991 -57.0965 -57.0945 -57.0942 -57.0924 -57.0913
   -57.0912 -57.0810 -57.0769 -57.0756 -57.0746 -57.0735 -57.0734 -57.0728
   -57.0725 -57.0711 -57.0704 -57.0686 -57.0678 -57.0670 -57.0648 -57.0643
   -25.1436 -23.6287 -21.6036 -15.9638 -14.3212 -12.5707 -10.2484  -8.9902
    -8.7881  -8.4631  -8.4007  -8.0486  -7.5406  -7.5186  -7.4203  -7.2315
    -7.2151  -7.2049  -7.2042  -7.1974  -7.1916  -6.8686  -6.7658  -6.7653
    -6.7613  -6.7222  -6.7210  -6.7180  -6.3592  -6.3566  -6.3506  -6.3472
    -6.3468  -6.3356  -6.1648  -6.1124  -5.9701  -5.9669  -5.9519  -5.8782
    -5.8775  -5.8684  -5.8683  -5.8673  -5.8552  -5.6165  -5.6163  -5.6095
    -5.6080  -5.6060  -5.6011  -5.5596  -5.5562  -5.5507  -5.5451  -5.5448
    -5.5422  -5.4355  -5.3753  -5.3745  -5.3731  -5.3726  -5.3637  -5.3527
    -5.1573  -5.1551  -5.1524  -5.1386  -5.1215  -5.0276  -4.9471  -4.9380
    -4.9331  -4.9323  -4.9289  -4.9255  -4.8456  -4.8272  -4.8255  -4.8218
    -4.8193  -4.7960  -4.7620  -4.7600  -4.6674  -4.6602  -4.6568  -4.6294
    -4.6073  -4.6041  -4.5944  -4.5890  -4.5864  -4.5863  -4.5851  -4.5809
    -4.5786  -4.5749  -4.5392  -4.5304  -4.5280  -4.5245  -4.5155  -4.4921
    -4.3933  -4.3740  -4.3641  -4.3618  -4.3502  -4.3440  -4.3425  -4.3376
    -4.3264  -4.3242  -4.3225  -4.2911  -4.2816  -3.9822  -3.9793  -3.9792
    -3.8684  -3.8356  -3.8273  -3.8251  -3.8226  -3.8188  -3.8114  -3.6539
    -3.6536  -3.6332  -3.6309  -3.6277  -3.6244  -3.6198  -3.6034  -3.5994
    -3.5976  -3.5821  -3.5707  -3.4848  -3.4775  -3.4699  -3.4221  -3.4181
    -3.4136  -3.4124  -3.4061  -3.3960  -3.3789  -3.3681  -3.3670  -3.3642
    -3.3623  -3.3473  -3.2417  -3.2407  -3.2366  -3.2103  -3.2007  -3.1983
    -3.1948  -3.1757  -3.0595  -3.0041  -2.9956  -2.9697  -2.9302  -2.9273
    -2.9203  -2.7822  -2.7765  -2.7721  -2.7689  -2.7686  -2.7674  -2.7533
    -2.7197  -2.7197  -2.5608  -2.5496  -2.5483  -2.5478  -2.5423  -2.5256
    -2.1910  -2.1896  -2.1863  -2.1240  -2.1226  -2.1202  -1.7853  -1.7523
    -1.7503  -1.7456  -1.7209  -1.6499  -1.6144  -0.1814  -0.1776  -0.1725
    -0.1719  -0.1678  -0.1662  -0.0861   0.1114   0.1153   0.1471   0.9338
     0.9349

          k = 0.0000-0.0501 0.0000 (100960 PWs)   bands (ev):

  -106.0408-105.9887-105.9517-105.9505-105.9500-105.9485-105.9480-105.9474
  -105.9447-105.9445-105.9436-105.9430-105.9426-105.9425-105.9411-105.9410
  -105.9402-105.9394-105.9392-105.9390-105.9387-105.9376-105.9374-105.9371
  -105.9365-105.9347-105.9347-105.9334-105.9330-105.9327-105.9320-105.9305
   -57.4193 -57.4151 -57.3875 -57.3857 -57.3780 -57.3778 -57.3749 -57.3708
   -57.3699 -57.3682 -57.3675 -57.3647 -57.3617 -57.3581 -57.3545 -57.3534
   -57.3509 -57.3442 -57.3429 -57.3427 -57.3391 -57.3377 -57.3346 -57.3340
   -57.3253 -57.3201 -57.3149 -57.3085 -57.3009 -57.2982 -57.2883 -57.2877
   -57.2846 -57.2832 -57.2813 -57.2809 -57.2792 -57.2731 -57.2706 -57.2698
   -57.2690 -57.2670 -57.2668 -57.2655 -57.2651 -57.2609 -57.2583 -57.2563
   -57.2555 -57.2547 -57.2538 -57.2520 -57.2479 -57.2475 -57.2451 -57.2439
   -57.2419 -57.2384 -57.2343 -57.2334 -57.2330 -57.2295 -57.2243 -57.2234
   -57.2194 -57.1522 -57.1305 -57.1278 -57.1253 -57.1178 -57.1115 -57.1099
   -57.1061 -57.1022 -57.1016 -57.1015 -57.0969 -57.0943 -57.0942 -57.0881
   -57.0851 -57.0822 -57.0778 -57.0759 -57.0751 -57.0744 -57.0735 -57.0725
   -57.0719 -57.0707 -57.0703 -57.0686 -57.0679 -57.0668 -57.0648 -57.0643
   -25.1436 -23.6287 -21.6036 -15.9638 -14.3212 -12.5707 -10.2480  -8.9903
    -8.4882  -8.4008  -8.3016  -8.2852  -8.0443  -7.5193  -7.4751  -7.4525
    -7.3901  -7.0781  -7.0722  -6.8688  -6.7705  -6.7617  -6.5427  -6.5365
    -6.5180  -6.5142  -6.5094  -6.5071  -6.4252  -6.4241  -6.4217  -6.4181
    -6.3350  -6.3264  -6.3189  -6.3157  -6.3110  -6.3065  -6.1643  -6.1105
    -6.0135  -6.0096  -6.0090  -5.9920  -5.8389  -5.8280  -5.8202  -5.8177
    -5.7861  -5.7841  -5.7300  -5.7277  -5.6057  -5.6051  -5.5720  -5.5711
    -5.5651  -5.5644  -5.5341  -5.5317  -5.4284  -5.2955  -5.2824  -5.1573
    -5.1539  -5.1518  -5.1241  -5.0518  -5.0451  -5.0401  -5.0296  -5.0278
    -5.0073  -5.0020  -4.9947  -4.9416  -4.9319  -4.9279  -4.9226  -4.8914
    -4.8911  -4.8768  -4.8717  -4.8069  -4.8025  -4.7965  -4.7887  -4.7069
    -4.6767  -4.6702  -4.6602  -4.6598  -4.6308  -4.5121  -4.4973  -4.4940
    -4.4644  -4.4627  -4.4574  -4.3929  -4.3705  -4.3683  -4.3005  -4.2983
    -4.2354  -4.2241  -4.2094  -4.1994  -4.1970  -4.1934  -4.1631  -4.1627
    -4.0071  -3.9997  -3.9935  -3.9893  -3.9237  -3.9058  -3.9043  -3.8951
    -3.8275  -3.8171  -3.8096  -3.7543  -3.7484  -3.7275  -3.7183  -3.7154
    -3.7106  -3.7074  -3.7045  -3.6204  -3.6193  -3.5076  -3.5034  -3.4597
    -3.4287  -3.4264  -3.4242  -3.4218  -3.4133  -3.4120  -3.3763  -3.3581
    -3.3483  -3.3478  -3.3343  -3.2610  -3.2395  -3.2307  -3.2230  -3.1054
    -3.1007  -3.0992  -3.0873  -3.0826  -3.0819  -3.0786  -3.0676  -3.0029
    -2.9965  -2.9883  -2.9827  -2.9806  -2.9732  -2.9364  -2.9316  -2.8939
    -2.8566  -2.8433  -2.8183  -2.8137  -2.7496  -2.7463  -2.7461  -2.7427
    -2.7295  -2.7261  -2.6229  -2.6144  -2.6037  -2.5877  -2.5686  -2.5611
    -2.5204  -2.5069  -2.5056  -2.4886  -2.4458  -2.3632  -2.2859  -2.2790
    -2.2786  -2.2610  -1.9126  -1.8869  -1.6696  -0.7899  -0.7869  -0.7655
    -0.7200  -0.3598  -0.3331  -0.1713  -0.1679  -0.1639  -0.1480   0.8067
     0.8695

          k = 0.0433-0.0250 0.0000 (100960 PWs)   bands (ev):

  -106.0408-105.9887-105.9517-105.9507-105.9494-105.9490-105.9479-105.9475
  -105.9445-105.9444-105.9439-105.9431-105.9427-105.9422-105.9413-105.9406
  -105.9400-105.9398-105.9392-105.9391-105.9387-105.9375-105.9374-105.9370
  -105.9364-105.9348-105.9347-105.9334-105.9330-105.9327-105.9320-105.9305
   -57.4185 -57.4162 -57.3890 -57.3831 -57.3788 -57.3777 -57.3745 -57.3702
   -57.3694 -57.3685 -57.3665 -57.3633 -57.3625 -57.3587 -57.3557 -57.3543
   -57.3535 -57.3441 -57.3425 -57.3417 -57.3387 -57.3367 -57.3355 -57.3343
   -57.3243 -57.3205 -57.3132 -57.3092 -57.3024 -57.2981 -57.2895 -57.2874
   -57.2863 -57.2820 -57.2814 -57.2805 -57.2768 -57.2750 -57.2703 -57.2686
   -57.2681 -57.2674 -57.2666 -57.2664 -57.2644 -57.2614 -57.2586 -57.2565
   -57.2561 -57.2552 -57.2534 -57.2519 -57.2482 -57.2472 -57.2445 -57.2430
   -57.2416 -57.2389 -57.2353 -57.2343 -57.2331 -57.2284 -57.2249 -57.2237
   -57.2186 -57.1521 -57.1316 -57.1281 -57.1227 -57.1189 -57.1108 -57.1096
   -57.1065 -57.1055 -57.1017 -57.1002 -57.0954 -57.0941 -57.0928 -57.0891
   -57.0871 -57.0799 -57.0786 -57.0768 -57.0748 -57.0738 -57.0733 -57.0727
   -57.0722 -57.0708 -57.0703 -57.0685 -57.0678 -57.0670 -57.0647 -57.0644
   -25.1436 -23.6287 -21.6036 -15.9638 -14.3212 -12.5707 -10.2480  -8.9902
    -8.4878  -8.4020  -8.2957  -8.2879  -8.0472  -7.5186  -7.4752  -7.4584
    -7.3851  -7.0774  -7.0729  -6.8690  -6.7660  -6.7594  -6.5452  -6.5344
    -6.5265  -6.5123  -6.5101  -6.5069  -6.4318  -6.4251  -6.4215  -6.4173
    -6.3373  -6.3274  -6.3186  -6.3156  -6.3122  -6.3072  -6.1643  -6.0950
    -6.0173  -6.0141  -6.0056  -5.9824  -5.8365  -5.8329  -5.8178  -5.8144
    -5.7952  -5.7846  -5.7332  -5.7210  -5.6150  -5.6046  -5.5733  -5.5675
    -5.5660  -5.5617  -5.5375  -5.5284  -5.4225  -5.2949  -5.2817  -5.1577
    -5.1533  -5.1481  -5.1269  -5.0467  -5.0410  -5.0377  -5.0310  -5.0279
    -5.0237  -5.0055  -4.9834  -4.9414  -4.9321  -4.9308  -4.9235  -4.8961
    -4.8816  -4.8776  -4.8746  -4.8068  -4.8015  -4.7954  -4.7871  -4.7039
    -4.6926  -4.6701  -4.6629  -4.6558  -4.6358  -4.5122  -4.5030  -4.4927
    -4.4794  -4.4619  -4.4551  -4.3746  -4.3652  -4.3550  -4.3108  -4.3007
    -4.2338  -4.2229  -4.2093  -4.2048  -4.1976  -4.1903  -4.1618  -4.1558
    -4.0077  -3.9994  -3.9950  -3.9904  -3.9134  -3.9095  -3.9044  -3.8945
    -3.8470  -3.8252  -3.8150  -3.7587  -3.7400  -3.7298  -3.7210  -3.7154
    -3.7087  -3.7069  -3.6949  -3.6287  -3.6128  -3.5110  -3.5007  -3.4558
    -3.4308  -3.4256  -3.4200  -3.4179  -3.4167  -3.4126  -3.3982  -3.3564
    -3.3512  -3.3374  -3.3205  -3.2581  -3.2405  -3.2306  -3.2207  -3.1061
    -3.1015  -3.0922  -3.0878  -3.0836  -3.0811  -3.0788  -3.0752  -2.9985
    -2.9940  -2.9877  -2.9836  -2.9804  -2.9771  -2.9400  -2.9336  -2.8877
    -2.8614  -2.8450  -2.8222  -2.8102  -2.7548  -2.7486  -2.7418  -2.7358
    -2.7313  -2.7241  -2.6234  -2.6087  -2.6025  -2.5893  -2.5679  -2.5617
    -2.5129  -2.5086  -2.5047  -2.5017  -2.4379  -2.3691  -2.2864  -2.2827
    -2.2758  -2.2592  -1.9318  -1.8668  -1.6650  -0.8002  -0.7810  -0.7590
    -0.7218  -0.3576  -0.3380  -0.1741  -0.1641  -0.1623  -0.1558   0.8083
     0.8602

          k =-0.0433-0.0250 0.0000 (100960 PWs)   bands (ev):

  -106.0408-105.9887-105.9517-105.9507-105.9493-105.9491-105.9479-105.9475
  -105.9445-105.9444-105.9438-105.9433-105.9426-105.9422-105.9413-105.9406
  -105.9399-105.9398-105.9392-105.9391-105.9387-105.9375-105.9374-105.9370
  -105.9364-105.9348-105.9347-105.9334-105.9330-105.9327-105.9320-105.9305
   -57.4185 -57.4162 -57.3890 -57.3831 -57.3788 -57.3777 -57.3745 -57.3703
   -57.3694 -57.3685 -57.3665 -57.3632 -57.3625 -57.3587 -57.3556 -57.3543
   -57.3535 -57.3440 -57.3425 -57.3417 -57.3386 -57.3367 -57.3355 -57.3343
   -57.3242 -57.3205 -57.3131 -57.3092 -57.3024 -57.2982 -57.2894 -57.2875
   -57.2863 -57.2820 -57.2813 -57.2805 -57.2770 -57.2750 -57.2702 -57.2686
   -57.2681 -57.2674 -57.2666 -57.2664 -57.2645 -57.2613 -57.2586 -57.2566
   -57.2560 -57.2552 -57.2534 -57.2519 -57.2482 -57.2472 -57.2445 -57.2430
   -57.2416 -57.2389 -57.2353 -57.2343 -57.2331 -57.2284 -57.2249 -57.2237
   -57.2186 -57.1521 -57.1316 -57.1281 -57.1226 -57.1189 -57.1108 -57.1096
   -57.1067 -57.1055 -57.1017 -57.1000 -57.0955 -57.0941 -57.0930 -57.0891
   -57.0870 -57.0799 -57.0785 -57.0769 -57.0748 -57.0738 -57.0733 -57.0727
   -57.0722 -57.0707 -57.0703 -57.0685 -57.0678 -57.0670 -57.0647 -57.0643
   -25.1436 -23.6287 -21.6036 -15.9638 -14.3212 -12.5707 -10.2480  -8.9902
    -8.4878  -8.4021  -8.2956  -8.2879  -8.0472  -7.5187  -7.4752  -7.4584
    -7.3851  -7.0774  -7.0730  -6.8690  -6.7659  -6.7594  -6.5452  -6.5344
    -6.5266  -6.5123  -6.5101  -6.5070  -6.4318  -6.4251  -6.4215  -6.4174
    -6.3374  -6.3273  -6.3185  -6.3156  -6.3123  -6.3072  -6.1645  -6.0948
    -6.0172  -6.0141  -6.0056  -5.9825  -5.8366  -5.8328  -5.8178  -5.8144
    -5.7952  -5.7845  -5.7332  -5.7210  -5.6151  -5.6047  -5.5732  -5.5676
    -5.5662  -5.5617  -5.5375  -5.5283  -5.4228  -5.2948  -5.2817  -5.1579
    -5.1533  -5.1481  -5.1267  -5.0468  -5.0405  -5.0378  -5.0311  -5.0278
    -5.0237  -5.0056  -4.9840  -4.9413  -4.9321  -4.9307  -4.9235  -4.8960
    -4.8817  -4.8776  -4.8744  -4.8069  -4.8016  -4.7955  -4.7874  -4.7038
    -4.6918  -4.6704  -4.6628  -4.6557  -4.6353  -4.5119  -4.5027  -4.4924
    -4.4786  -4.4619  -4.4551  -4.3746  -4.3653  -4.3587  -4.3105  -4.3007
    -4.2338  -4.2231  -4.2094  -4.2047  -4.1977  -4.1895  -4.1618  -4.1562
    -4.0081  -3.9993  -3.9950  -3.9904  -3.9133  -3.9096  -3.9040  -3.8945
    -3.8463  -3.8260  -3.8123  -3.7587  -3.7406  -3.7310  -3.7213  -3.7155
    -3.7086  -3.7069  -3.6947  -3.6286  -3.6139  -3.5110  -3.5011  -3.4560
    -3.4310  -3.4256  -3.4200  -3.4179  -3.4168  -3.4124  -3.3990  -3.3567
    -3.3514  -3.3374  -3.3203  -3.2570  -3.2404  -3.2307  -3.2203  -3.1060
    -3.1015  -3.0920  -3.0878  -3.0836  -3.0811  -3.0787  -3.0752  -2.9985
    -2.9940  -2.9877  -2.9837  -2.9804  -2.9773  -2.9401  -2.9336  -2.8880
    -2.8614  -2.8448  -2.8222  -2.8100  -2.7548  -2.7486  -2.7417  -2.7359
    -2.7314  -2.7241  -2.6234  -2.6086  -2.6025  -2.5893  -2.5679  -2.5617
    -2.5128  -2.5086  -2.5046  -2.5019  -2.4377  -2.3691  -2.2864  -2.2826
    -2.2759  -2.2591  -1.9316  -1.8671  -1.6650  -0.8001  -0.7809  -0.7593
    -0.7219  -0.3577  -0.3378  -0.1740  -0.1640  -0.1624  -0.1560   0.8088
     0.8598

     the Fermi energy is    -0.7044 ev

!    total energy              =   -8954.24396605 Ry
     Harris-Foulkes estimate   =   -8954.24396718 Ry
     estimated scf accuracy    <       0.00000065 Ry

     The total energy is the sum of the following terms:

     one-electron contribution =  -81485.45495806 Ry
     hartree contribution      =   40575.34599807 Ry
     xc contribution           =    -855.67955899 Ry
     ewald contribution        =   32811.57762487 Ry
     smearing contrib. (-TS)   =      -0.03307194 Ry

     convergence has been achieved in  18 iterations

     Forces acting on atoms (Ry/au):


     negative rho (up, down):  3.081E-03 0.000E+00
     atom    1 type  1   force =     0.00017600   -0.00002779   -0.01154884
     atom    2 type  1   force =    -0.00054361   -0.00034073    0.01113090
     atom    3 type  1   force =    -0.00000141    0.00003945   -0.01196560
     atom    4 type  1   force =    -0.00152800   -0.00015193    0.01168762
     atom    5 type  1   force =    -0.00001241    0.00004588   -0.01182158
     atom    6 type  1   force =     0.00000099   -0.00000719    0.01143072
     atom    7 type  1   force =     0.00008675    0.00008653   -0.01178511
     atom    8 type  1   force =    -0.00141176   -0.00200382    0.01214860
     atom    9 type  1   force =    -0.00097773   -0.00049608   -0.01353363
     atom   10 type  1   force =     0.00000578   -0.00425544    0.00258603
     atom   11 type  1   force =    -0.00073717   -0.00022425   -0.01156571
     atom   12 type  1   force =    -0.00163413    0.00050159    0.00650525
     atom   13 type  1   force =     0.00001043    0.00004699   -0.01181330
     atom   14 type  1   force =    -0.00061576    0.00137417    0.01185027
     atom   15 type  1   force =    -0.00000087   -0.00021279   -0.01167594
     atom   16 type  1   force =     0.00141082   -0.00199860    0.01214957
     atom   17 type  1   force =     0.00097791   -0.00049824   -0.01352607
     atom   18 type  1   force =     0.00054787   -0.00034658    0.01112618
     atom   19 type  1   force =    -0.00000627    0.00000919   -0.00994426
     atom   20 type  1   force =     0.00160659    0.00047945    0.00652428
     atom   21 type  1   force =     0.00004996    0.00055130   -0.01146502
     atom   22 type  1   force =    -0.00000548    0.00087351    0.01043346
     atom   23 type  1   force =    -0.00008661    0.00008658   -0.01179513
     atom   24 type  1   force =    -0.00018296    0.00004914    0.01155093
     atom   25 type  1   force =    -0.00017667   -0.00002654   -0.01155831
     atom   26 type  1   force =     0.00000441    0.00017674    0.01158197
     atom   27 type  1   force =     0.00074172   -0.00022205   -0.01157232
     atom   28 type  1   force =     0.00152207   -0.00015401    0.01169744
     atom   29 type  1   force =    -0.00004865    0.00055028   -0.01146425
     atom   30 type  1   force =     0.00061234    0.00136925    0.01185344
     atom   31 type  1   force =    -0.00000053    0.00000948   -0.01192804
     atom   32 type  1   force =     0.00018491    0.00005125    0.01155233
     atom   33 type  2   force =     0.00764385    0.28945534   -0.35826678
     atom   34 type  2   force =     0.00022882   -0.08935516    0.01539443
     atom   35 type  2   force =     0.01231376   -0.49364991    0.51386352
     atom   36 type  3   force =     0.00151225   -0.03026821    0.13762445
     atom   37 type  3   force =     0.00004160    0.03934864   -0.09782478
     atom   38 type  3   force =    -0.00631614   -0.29125271    0.33485547
     atom   39 type  3   force =    -0.00430803   -0.05535540    0.05297607
     atom   40 type  3   force =    -0.01278333    0.50226366   -0.52475610
     atom   41 type  4   force =    -0.03334875    0.02341653   -0.02173935
     atom   42 type  4   force =     0.03150187    0.02260034   -0.02107110
     atom   43 type  4   force =    -0.02933407   -0.02442721    0.01644496
     atom   44 type  4   force =     0.02923062   -0.02479463    0.01578606
     atom   45 type  4   force =     0.03206532    0.01507838   -0.02172705
     atom   46 type  4   force =    -0.02875254    0.01480841   -0.02268565
     atom   47 type  4   force =     0.00039665    0.03015640    0.00338762
     atom   48 type  4   force =    -0.00006043    0.07664076    0.00089234

     Total force =     1.229517     Total SCF correction =     0.003324
 !ASE

     Writing output data file calc.save
     Check: negative starting charge=   -0.002256
     NEW-OLD atomic charge density approx. for the potential
     Check: negative starting charge=   -0.002265

     negative rho (up, down):  3.554E-03 0.000E+00

     total cpu time spent up to now is     7828.0 secs

     per-process dynamical memory:   554.0 Mb

     Self-consistent Calculation

     iteration #  1     ecut=    40.42 Ry     beta=0.20
     Davidson diagonalization with overlap
     ethr =  1.70E-10,  avg # of iterations = 12.2

     negative rho (up, down):  3.564E-03 0.000E+00

     total cpu time spent up to now is     8454.2 secs

     total energy              =   -8954.32717698 Ry
     Harris-Foulkes estimate   =   -8954.33008589 Ry
     estimated scf accuracy    <       0.02525880 Ry

     iteration #  2     ecut=    40.42 Ry     beta=0.20
     Davidson diagonalization with overlap
     ethr =  3.86E-06,  avg # of iterations =  1.0

     negative rho (up, down):  6.781E-03 0.000E+00

     total cpu time spent up to now is     8612.9 secs

     total energy              =   -8954.31915112 Ry
     Harris-Foulkes estimate   =   -8954.32729508 Ry
     estimated scf accuracy    <       0.01729335 Ry

     iteration #  3     ecut=    40.42 Ry     beta=0.20
     Davidson diagonalization with overlap
     ethr =  2.64E-06,  avg # of iterations =  3.0

     negative rho (up, down):  6.240E-03 0.000E+00

     total cpu time spent up to now is     8787.4 secs

     total energy              =   -8954.32163400 Ry
     Harris-Foulkes estimate   =   -8954.32169098 Ry
     estimated scf accuracy    <       0.00139469 Ry

     iteration #  4     ecut=    40.42 Ry     beta=0.20
     Davidson diagonalization with overlap
     ethr =  2.13E-07,  avg # of iterations =  2.0

     negative rho (up, down):  6.497E-03 0.000E+00

     total cpu time spent up to now is     8956.8 secs

     total energy              =   -8954.32136120 Ry
     Harris-Foulkes estimate   =   -8954.32166382 Ry
     estimated scf accuracy    <       0.00109019 Ry

     iteration #  5     ecut=    40.42 Ry     beta=0.20
     Davidson diagonalization with overlap
     ethr =  1.67E-07,  avg # of iterations =  4.0

     negative rho (up, down):  6.291E-03 0.000E+00

     total cpu time spent up to now is     9135.9 secs

     total energy              =   -8954.32143915 Ry
     Harris-Foulkes estimate   =   -8954.32146767 Ry
     estimated scf accuracy    <       0.00035762 Ry

     iteration #  6     ecut=    40.42 Ry     beta=0.20
     Davidson diagonalization with overlap
     ethr =  5.47E-08,  avg # of iterations =  3.0

     negative rho (up, down):  6.419E-03 0.000E+00

     total cpu time spent up to now is     9302.0 secs

     total energy              =   -8954.32136727 Ry
     Harris-Foulkes estimate   =   -8954.32145093 Ry
     estimated scf accuracy    <       0.00036827 Ry

     iteration #  7     ecut=    40.42 Ry     beta=0.20
     Davidson diagonalization with overlap
     ethr =  5.47E-08,  avg # of iterations =  3.0

     negative rho (up, down):  6.282E-03 0.000E+00

     total cpu time spent up to now is     9463.3 secs

     total energy              =   -8954.32134798 Ry
     Harris-Foulkes estimate   =   -8954.32138455 Ry
     estimated scf accuracy    <       0.00017553 Ry

     iteration #  8     ecut=    40.42 Ry     beta=0.20
     Davidson diagonalization with overlap
     ethr =  2.68E-08,  avg # of iterations =  3.0

     negative rho (up, down):  5.911E-03 0.000E+00

     total cpu time spent up to now is     9625.7 secs

     total energy              =   -8954.32133249 Ry
     Harris-Foulkes estimate   =   -8954.32135898 Ry
     estimated scf accuracy    <       0.00013870 Ry

     iteration #  9     ecut=    40.42 Ry     beta=0.20
     Davidson diagonalization with overlap
     ethr =  2.12E-08,  avg # of iterations =  2.0

     negative rho (up, down):  5.058E-03 0.000E+00

     total cpu time spent up to now is     9800.0 secs

     total energy              =   -8954.32130407 Ry
     Harris-Foulkes estimate   =   -8954.32133575 Ry
     estimated scf accuracy    <       0.00009800 Ry

     iteration # 10     ecut=    40.42 Ry     beta=0.20
     Davidson diagonalization with overlap
     ethr =  1.50E-08,  avg # of iterations =  3.0

     negative rho (up, down):  4.324E-03 0.000E+00

     total cpu time spent up to now is     9962.1 secs

     total energy              =   -8954.32128527 Ry
     Harris-Foulkes estimate   =   -8954.32130684 Ry
     estimated scf accuracy    <       0.00005383 Ry

     iteration # 11     ecut=    40.42 Ry     beta=0.20
     Davidson diagonalization with overlap
     ethr =  8.23E-09,  avg # of iterations =  3.0

     negative rho (up, down):  3.489E-03 0.000E+00

     total cpu time spent up to now is    10119.0 secs

     total energy              =   -8954.32127117 Ry
     Harris-Foulkes estimate   =   -8954.32128825 Ry
     estimated scf accuracy    <       0.00004349 Ry

     iteration # 12     ecut=    40.42 Ry     beta=0.20
     Davidson diagonalization with overlap
     ethr =  6.65E-09,  avg # of iterations =  3.0

     negative rho (up, down):  3.030E-03 0.000E+00

     total cpu time spent up to now is    10288.4 secs

     total energy              =   -8954.32127200 Ry
     Harris-Foulkes estimate   =   -8954.32127556 Ry
     estimated scf accuracy    <       0.00001221 Ry

     iteration # 13     ecut=    40.42 Ry     beta=0.20
     Davidson diagonalization with overlap
     ethr =  1.87E-09,  avg # of iterations =  3.0

     negative rho (up, down):  3.109E-03 0.000E+00

     total cpu time spent up to now is    10457.4 secs

     total energy              =   -8954.32127030 Ry
     Harris-Foulkes estimate   =   -8954.32127327 Ry
     estimated scf accuracy    <       0.00001047 Ry

     iteration # 14     ecut=    40.42 Ry     beta=0.20
     Davidson diagonalization with overlap
     ethr =  1.60E-09,  avg # of iterations =  3.0

     negative rho (up, down):  3.090E-03 0.000E+00

     total cpu time spent up to now is    10626.8 secs

     total energy              =   -8954.32126947 Ry
     Harris-Foulkes estimate   =   -8954.32127134 Ry
     estimated scf accuracy    <       0.00000315 Ry

     iteration # 15     ecut=    40.42 Ry     beta=0.20
     Davidson diagonalization with overlap
     ethr =  4.81E-10,  avg # of iterations =  3.0

     negative rho (up, down):  3.100E-03 0.000E+00

     total cpu time spent up to now is    10786.6 secs

     total energy              =   -8954.32126887 Ry
     Harris-Foulkes estimate   =   -8954.32126966 Ry
     estimated scf accuracy    <       0.00000139 Ry

     iteration # 16     ecut=    40.42 Ry     beta=0.20
     Davidson diagonalization with overlap
     ethr =  2.13E-10,  avg # of iterations =  2.8

     negative rho (up, down):  3.048E-03 0.000E+00

     total cpu time spent up to now is    10931.9 secs

     End of self-consistent calculation

          k = 0.0000 0.0000 0.0000 (100843 PWs)   bands (ev):

  -106.1395-106.0871-106.0606-106.0594-106.0578-106.0576-106.0571-106.0550
  -106.0547-106.0540-106.0538-106.0522-106.0514-106.0507-106.0506-106.0496
  -106.0495-106.0491-106.0486-106.0482-106.0476-106.0474-106.0474-106.0470
  -106.0462-106.0462-106.0457-106.0457-106.0455-106.0454-106.0416-106.0401
   -57.5247 -57.5241 -57.5051 -57.4993 -57.4955 -57.4931 -57.4827 -57.4809
   -57.4726 -57.4718 -57.4698 -57.4688 -57.4683 -57.4662 -57.4640 -57.4639
   -57.4632 -57.4632 -57.4376 -57.4366 -57.4223 -57.4222 -57.4196 -57.4182
   -57.4157 -57.4144 -57.4130 -57.4121 -57.4096 -57.4091 -57.4086 -57.4075
   -57.4074 -57.4067 -57.4057 -57.4052 -57.3992 -57.3985 -57.3966 -57.3952
   -57.3949 -57.3946 -57.3837 -57.3818 -57.3804 -57.3661 -57.3656 -57.3620
   -57.3616 -57.3595 -57.3581 -57.3578 -57.3562 -57.3555 -57.3461 -57.3436
   -57.3414 -57.3408 -57.3399 -57.3397 -57.3348 -57.3343 -57.3337 -57.3219
   -57.3218 -57.2719 -57.2622 -57.2515 -57.2494 -57.2493 -57.2459 -57.2432
   -57.2322 -57.2254 -57.2225 -57.2213 -57.2202 -57.2192 -57.2180 -57.2167
   -57.2123 -57.1979 -57.1935 -57.1923 -57.1921 -57.1913 -57.1904 -57.1891
   -57.1886 -57.1881 -57.1839 -57.1834 -57.1828 -57.1816 -57.1812 -57.1790
   -23.9280 -22.5265 -21.7582 -15.9297 -14.4393 -12.8225 -10.6441  -9.0283
    -8.8763  -8.2895  -8.1475  -7.8574  -7.6474  -7.4769  -7.4700  -7.4620
    -7.4620  -7.4602  -7.4569  -7.1711  -7.0271  -6.9389  -6.9366  -6.9271
    -6.8964  -6.8958  -6.8942  -6.6734  -6.5009  -6.4957  -6.4957  -6.4931
    -6.4913  -6.4854  -6.2266  -6.2232  -6.2210  -6.1638  -6.1594  -6.1578
    -6.1558  -6.1513  -6.1508  -6.0996  -5.9035  -5.8167  -5.8131  -5.8118
    -5.8108  -5.8095  -5.8029  -5.7798  -5.7789  -5.7776  -5.7750  -5.7735
    -5.7494  -5.5691  -5.5689  -5.5663  -5.5660  -5.5616  -5.5530  -5.2591
    -5.2580  -5.2489  -5.1821  -5.1154  -5.0912  -5.0908  -5.0898  -5.0886
    -5.0865  -5.0854  -5.0258  -4.9561  -4.9413  -4.9403  -4.9395  -4.9358
    -4.9147  -4.9120  -4.9042  -4.9018  -4.8139  -4.7985  -4.7893  -4.7871
    -4.7834  -4.7822  -4.7789  -4.7690  -4.7072  -4.7052  -4.7012  -4.6998
    -4.6980  -4.6946  -4.6495  -4.6425  -4.6402  -4.6369  -4.6337  -4.6073
    -4.4846  -4.4661  -4.4644  -4.4567  -4.4503  -4.4459  -4.4416  -4.4378
    -4.4339  -4.4329  -4.4317  -4.4254  -4.3912  -4.2264  -4.2231  -4.2230
    -4.0734  -4.0632  -4.0628  -4.0570  -4.0562  -4.0545  -4.0267  -3.7855
    -3.7763  -3.7729  -3.7714  -3.7704  -3.7676  -3.6520  -3.6204  -3.6189
    -3.6156  -3.5993  -3.5933  -3.5433  -3.5339  -3.5326  -3.4641  -3.4564
    -3.4562  -3.4543  -3.4526  -3.4498  -3.4372  -3.4311  -3.4285  -3.4280
    -3.4258  -3.4187  -3.4085  -3.4038  -3.2472  -3.2257  -3.2242  -3.2230
    -3.2190  -3.2058  -3.0847  -3.0707  -3.0464  -3.0351  -2.9577  -2.9559
    -2.9510  -2.8051  -2.8023  -2.7946  -2.7937  -2.7933  -2.7933  -2.7720
    -2.7718  -2.6539  -2.5932  -2.5809  -2.5804  -2.5794  -2.5690  -2.5655
    -2.3103  -2.3091  -2.3064  -2.2196  -2.2184  -2.2163  -1.7274  -1.6992
    -1.6967  -1.6932  -1.6776  -1.6156  -1.5817  -0.2971  -0.2950  -0.2928
    -0.2919  -0.2881  -0.2798  -0.1213  -0.0157  -0.0115   0.0226   0.8466
     0.8479

          k = 0.0000-0.0501 0.0000 (100960 PWs)   bands (ev):

  -106.1395-106.0871-106.0602-106.0596-106.0591-106.0567-106.0565-106.0554
  -106.0548-106.0539-106.0536-106.0526-106.0513-106.0510-106.0507-106.0500
  -106.0488-106.0483-106.0482-106.0482-106.0481-106.0473-106.0473-106.0472
  -106.0471-106.0462-106.0460-106.0457-106.0454-106.0450-106.0416-106.0401
   -57.5217 -57.5182 -57.4928 -57.4926 -57.4879 -57.4862 -57.4812 -57.4791
   -57.4789 -57.4775 -57.4754 -57.4746 -57.4731 -57.4664 -57.4624 -57.4623
   -57.4592 -57.4529 -57.4527 -57.4521 -57.4470 -57.4467 -57.4431 -57.4428
   -57.4347 -57.4305 -57.4215 -57.4148 -57.4092 -57.4052 -57.3977 -57.3956
   -57.3938 -57.3925 -57.3914 -57.3902 -57.3859 -57.3814 -57.3788 -57.3785
   -57.3767 -57.3765 -57.3750 -57.3735 -57.3734 -57.3717 -57.3670 -57.3625
   -57.3622 -57.3611 -57.3609 -57.3581 -57.3576 -57.3538 -57.3531 -57.3528
   -57.3506 -57.3470 -57.3437 -57.3405 -57.3403 -57.3395 -57.3330 -57.3295
   -57.3260 -57.2705 -57.2616 -57.2567 -57.2552 -57.2449 -57.2385 -57.2371
   -57.2339 -57.2296 -57.2272 -57.2237 -57.2221 -57.2201 -57.2192 -57.2102
   -57.2058 -57.2012 -57.1978 -57.1916 -57.1915 -57.1907 -57.1902 -57.1896
   -57.1871 -57.1869 -57.1844 -57.1836 -57.1833 -57.1814 -57.1812 -57.1790
   -23.9280 -22.5265 -21.7582 -15.9297 -14.4393 -12.8225 -10.6438  -8.8770
    -8.5666  -8.5486  -8.2782  -8.1477  -7.8484  -7.7144  -7.7047  -7.2099
    -7.1999  -7.1732  -7.0282  -6.9705  -6.9645  -6.7753  -6.7706  -6.7689
    -6.7683  -6.7038  -6.6943  -6.6682  -6.6234  -6.6211  -6.6194  -6.6145
    -6.5003  -6.4982  -6.4969  -6.4932  -6.4560  -6.4552  -6.1820  -6.1762
    -6.1757  -6.1730  -6.1118  -6.0871  -6.0799  -6.0745  -6.0728  -6.0504
    -6.0307  -5.9894  -5.9839  -5.8881  -5.8467  -5.8192  -5.7868  -5.7865
    -5.7824  -5.7698  -5.7638  -5.7611  -5.4551  -5.4463  -5.3040  -5.2945
    -5.2086  -5.1662  -5.1641  -5.1531  -5.1417  -5.1380  -5.1211  -5.1192
    -5.1041  -5.0624  -5.0557  -5.0404  -5.0343  -5.0217  -5.0196  -5.0195
    -5.0134  -5.0075  -4.9168  -4.9113  -4.9067  -4.9047  -4.8885  -4.8847
    -4.8654  -4.8136  -4.8113  -4.8081  -4.7808  -4.6225  -4.6129  -4.6124
    -4.6072  -4.6023  -4.5824  -4.5106  -4.5053  -4.4946  -4.4659  -4.4647
    -4.4485  -4.4484  -4.4407  -4.4328  -4.3297  -4.3252  -4.2745  -4.2629
    -4.1836  -4.1630  -4.1567  -4.1551  -4.1488  -4.1406  -4.1005  -4.0878
    -3.9934  -3.9692  -3.9564  -3.8833  -3.8813  -3.8334  -3.8287  -3.8201
    -3.8198  -3.8116  -3.8077  -3.6916  -3.6892  -3.5408  -3.5345  -3.5322
    -3.5205  -3.5167  -3.5057  -3.5048  -3.4929  -3.4752  -3.4603  -3.4461
    -3.4423  -3.4304  -3.4144  -3.3117  -3.3063  -3.2696  -3.2684  -3.1576
    -3.1472  -3.1432  -3.1398  -3.1268  -3.1256  -3.1244  -3.1171  -3.0405
    -3.0246  -3.0215  -3.0209  -3.0104  -3.0101  -3.0067  -2.9986  -2.9080
    -2.8964  -2.8509  -2.8433  -2.8221  -2.8115  -2.8087  -2.8081  -2.7749
    -2.7693  -2.7598  -2.7197  -2.6810  -2.6802  -2.6703  -2.6607  -2.6544
    -2.5665  -2.5558  -2.5532  -2.5445  -2.4668  -2.4015  -2.3857  -2.3823
    -2.3823  -2.3420  -1.8830  -1.8611  -1.6275  -0.7334  -0.7235  -0.7039
    -0.6655  -0.3043  -0.2960  -0.2922  -0.2892  -0.2871  -0.2388   0.8087
     0.8624

          k = 0.0433-0.0250 0.0000 (100960 PWs)   bands (ev):

  -106.1395-106.0871-106.0601-106.0599-106.0584-106.0576-106.0560-106.0558
  -106.0542-106.0541-106.0536-106.0525-106.0518-106.0509-106.0505-106.0493
  -106.0490-106.0490-106.0484-106.0481-106.0479-106.0474-106.0473-106.0472
  -106.0466-106.0462-106.0461-106.0458-106.0452-106.0451-106.0416-106.0401
   -57.5214 -57.5188 -57.4941 -57.4896 -57.4880 -57.4870 -57.4824 -57.4791
   -57.4778 -57.4772 -57.4759 -57.4736 -57.4724 -57.4669 -57.4632 -57.4626
   -57.4607 -57.4529 -57.4526 -57.4515 -57.4473 -57.4454 -57.4440 -57.4428
   -57.4338 -57.4309 -57.4197 -57.4153 -57.4098 -57.4062 -57.3987 -57.3958
   -57.3935 -57.3923 -57.3912 -57.3903 -57.3842 -57.3826 -57.3787 -57.3777
   -57.3766 -57.3756 -57.3749 -57.3742 -57.3736 -57.3717 -57.3669 -57.3635
   -57.3626 -57.3612 -57.3603 -57.3579 -57.3576 -57.3536 -57.3532 -57.3524
   -57.3501 -57.3471 -57.3447 -57.3409 -57.3401 -57.3391 -57.3330 -57.3300
   -57.3255 -57.2694 -57.2641 -57.2581 -57.2507 -57.2462 -57.2383 -57.2368
   -57.2330 -57.2318 -57.2291 -57.2246 -57.2209 -57.2187 -57.2157 -57.2121
   -57.2087 -57.1986 -57.1961 -57.1952 -57.1920 -57.1902 -57.1899 -57.1883
   -57.1875 -57.1866 -57.1844 -57.1842 -57.1828 -57.1814 -57.1814 -57.1790
   -23.9280 -22.5265 -21.7583 -15.9297 -14.4393 -12.8225 -10.6439  -8.8769
    -8.5667  -8.5468  -8.2797  -8.1467  -7.8587  -7.7156  -7.6936  -7.2116
    -7.2001  -7.1732  -7.0219  -6.9697  -6.9685  -6.7815  -6.7708  -6.7698
    -6.7666  -6.6994  -6.6935  -6.6754  -6.6224  -6.6212  -6.6189  -6.6134
    -6.5011  -6.5000  -6.4944  -6.4915  -6.4582  -6.4529  -6.1808  -6.1775
    -6.1743  -6.1724  -6.1148  -6.0880  -6.0815  -6.0720  -6.0686  -6.0455
    -6.0310  -5.9922  -5.9881  -5.8821  -5.8488  -5.8386  -5.7877  -5.7851
    -5.7822  -5.7705  -5.7654  -5.7385  -5.4544  -5.4464  -5.3017  -5.2951
    -5.2041  -5.1689  -5.1641  -5.1449  -5.1422  -5.1373  -5.1348  -5.1201
    -5.0923  -5.0672  -5.0606  -5.0417  -5.0310  -5.0266  -5.0157  -5.0137
    -5.0123  -5.0102  -4.9202  -4.9107  -4.9067  -4.8975  -4.8872  -4.8844
    -4.8799  -4.8171  -4.8107  -4.8071  -4.7817  -4.6200  -4.6165  -4.6106
    -4.6074  -4.6011  -4.5978  -4.5121  -4.5033  -4.4775  -4.4658  -4.4615
    -4.4503  -4.4488  -4.4461  -4.4347  -4.3287  -4.3239  -4.2698  -4.2579
    -4.1815  -4.1640  -4.1603  -4.1556  -4.1477  -4.1404  -4.0900  -4.0878
    -4.0245  -3.9677  -3.9526  -3.8861  -3.8767  -3.8352  -3.8249  -3.8211
    -3.8147  -3.8127  -3.8091  -3.6999  -3.6865  -3.5382  -3.5364  -3.5322
    -3.5259  -3.5159  -3.5112  -3.5045  -3.5010  -3.4726  -3.4568  -3.4485
    -3.4458  -3.4249  -3.3972  -3.3127  -3.3042  -3.2719  -3.2602  -3.1526
    -3.1488  -3.1443  -3.1421  -3.1291  -3.1267  -3.1208  -3.1184  -3.0350
    -3.0266  -3.0234  -3.0216  -3.0127  -3.0100  -3.0057  -3.0021  -2.9093
    -2.8986  -2.8527  -2.8431  -2.8172  -2.8125  -2.8106  -2.8009  -2.7771
    -2.7684  -2.7597  -2.7209  -2.6799  -2.6752  -2.6709  -2.6604  -2.6543
    -2.5647  -2.5578  -2.5529  -2.5504  -2.4635  -2.4048  -2.3856  -2.3846
[...]
    -3.0155  -3.0147  -3.0088  -3.0087  -2.9738  -2.8847  -2.8845  -2.8579
    -2.8435  -2.7456  -2.7156  -2.7152  -2.7085  -2.7083  -2.6639  -2.6589
    -2.6573  -2.5792  -2.5788  -2.5184  -2.5178  -2.4709  -2.4703  -2.4483
    -2.4480  -2.4070  -2.3361  -2.2827  -2.2827  -2.2392  -2.0044  -1.7292
    -1.7210  -1.6271  -1.3407  -1.3401  -1.2134  -1.2059  -1.1998  -0.9752
    -0.2335  -0.2333  -0.1473  -0.1469   0.2114   0.4497   0.4548   0.9605
     1.0004

          k = 0.0433-0.0250 0.0000 (100960 PWs)   bands (ev):

  -105.9901-105.9883-105.9867-105.9867-105.9846-105.9841-105.9839-105.9834
  -105.9832-105.9825-105.9820-105.9817-105.9814-105.9808-105.9806-105.9802
  -105.9801-105.9799-105.9796-105.9791-105.9787-105.9785-105.9784-105.9781
  -105.9780-105.9775-105.9771-105.9768-105.9750-105.9745-105.9726-105.9717
   -57.4119 -57.4114 -57.4097 -57.4094 -57.4003 -57.3987 -57.3976 -57.3971
   -57.3957 -57.3949 -57.3943 -57.3942 -57.3857 -57.3841 -57.3803 -57.3801
   -57.3713 -57.3712 -57.3708 -57.3706 -57.3620 -57.3619 -57.3616 -57.3613
   -57.3506 -57.3504 -57.3296 -57.3292 -57.3169 -57.3167 -57.3145 -57.3140
   -57.3126 -57.3121 -57.3098 -57.3095 -57.2963 -57.2962 -57.2959 -57.2956
   -57.2945 -57.2927 -57.2904 -57.2902 -57.2885 -57.2881 -57.2798 -57.2782
   -57.2761 -57.2758 -57.2756 -57.2752 -57.2727 -57.2722 -57.2698 -57.2687
   -57.2679 -57.2675 -57.2611 -57.2592 -57.2555 -57.2551 -57.2427 -57.2418
   -57.2406 -57.2406 -57.2306 -57.2302 -57.2118 -57.2115 -57.2114 -57.2103
   -57.2060 -57.2039 -57.1945 -57.1940 -57.1919 -57.1911 -57.1797 -57.1793
   -57.1652 -57.1650 -57.1588 -57.1581 -57.1562 -57.1553 -57.1529 -57.1512
   -57.1495 -57.1485 -57.1484 -57.1481 -57.1442 -57.1438 -57.1426 -57.1407
   -23.5362 -21.8731 -21.2335 -15.8810 -14.5065 -12.9123 -10.6146  -8.9330
    -8.6023  -8.5997  -8.1119  -7.9770  -7.7769  -7.7762  -7.6192  -7.1604
    -7.1582  -6.9912  -6.9900  -6.9600  -6.8422  -6.8320  -6.8316  -6.8314
    -6.8295  -6.6718  -6.6705  -6.6359  -6.6357  -6.6352  -6.6350  -6.5922
    -6.4895  -6.4890  -6.4884  -6.4879  -6.4309  -6.4303  -6.1565  -6.1564
    -6.1560  -6.1559  -6.1424  -6.1420  -6.1400  -6.1396  -6.0966  -6.0946
    -6.0583  -6.0582  -5.9682  -5.9047  -5.9044  -5.8230  -5.8227  -5.8224
    -5.8222  -5.8082  -5.8079  -5.5653  -5.4235  -5.4234  -5.2789  -5.2785
    -5.1164  -5.1152  -5.0749  -5.0731  -5.0714  -5.0707  -5.0665  -5.0602
    -5.0537  -5.0123  -5.0122  -4.9890  -4.9648  -4.9642  -4.9641  -4.9637
    -4.9626  -4.9620  -4.9029  -4.9022  -4.8376  -4.8362  -4.8065  -4.8057
    -4.7990  -4.7982  -4.7974  -4.7954  -4.7369  -4.5649  -4.5641  -4.5636
    -4.5628  -4.5622  -4.5606  -4.5171  -4.5167  -4.5152  -4.5147  -4.4664
    -4.4645  -4.4209  -4.4195  -4.3914  -4.2770  -4.2763  -4.2174  -4.2151
    -4.1916  -4.1909  -4.1371  -4.1370  -4.1369  -4.1363  -4.1029  -4.1025
    -3.9407  -3.9385  -3.8289  -3.8282  -3.7795  -3.7783  -3.7778  -3.7764
    -3.7733  -3.7708  -3.6605  -3.6030  -3.6008  -3.4901  -3.4881  -3.4780
    -3.4769  -3.4763  -3.4754  -3.3636  -3.3606  -3.3585  -3.3582  -3.3539
    -3.3528  -3.3509  -3.3506  -3.2089  -3.2074  -3.1709  -3.1683  -3.0599
    -3.0598  -3.0595  -3.0592  -3.0073  -3.0071  -3.0051  -3.0048  -2.9304
    -2.9288  -2.9086  -2.9079  -2.9063  -2.9049  -2.8882  -2.8876  -2.7875
    -2.7867  -2.7363  -2.7359  -2.7034  -2.7032  -2.7025  -2.7017  -2.6594
    -2.6569  -2.6378  -2.6371  -2.5693  -2.5679  -2.5489  -2.5469  -2.4510
    -2.4483  -2.4455  -2.4449  -2.4359  -2.3977  -2.3660  -2.2962  -2.2959
    -2.2958  -2.2952  -1.7734  -1.7651  -1.6275  -0.5562  -0.5545  -0.5520
    -0.5473  -0.2354  -0.2350  -0.2326  -0.2325  -0.1169  -0.1152   0.8867
     0.9104

          k =-0.0433-0.0250 0.0000 (100960 PWs)   bands (ev):

  -105.9900-105.9884-105.9867-105.9866-105.9846-105.9841-105.9839-105.9834
  -105.9833-105.9825-105.9819-105.9818-105.9812-105.9808-105.9807-105.9803
  -105.9800-105.9799-105.9796-105.9793-105.9787-105.9785-105.9783-105.9782
  -105.9780-105.9775-105.9771-105.9768-105.9750-105.9745-105.9726-105.9718
   -57.4117 -57.4113 -57.4098 -57.4096 -57.4002 -57.3988 -57.3975 -57.3970
   -57.3958 -57.3952 -57.3943 -57.3942 -57.3856 -57.3842 -57.3802 -57.3800
   -57.3713 -57.3712 -57.3708 -57.3706 -57.3619 -57.3619 -57.3615 -57.3614
   -57.3506 -57.3504 -57.3296 -57.3293 -57.3169 -57.3167 -57.3144 -57.3139
   -57.3127 -57.3123 -57.3098 -57.3095 -57.2963 -57.2962 -57.2960 -57.2956
   -57.2943 -57.2927 -57.2903 -57.2901 -57.2886 -57.2883 -57.2797 -57.2784
   -57.2760 -57.2758 -57.2756 -57.2752 -57.2727 -57.2723 -57.2697 -57.2686
   -57.2679 -57.2676 -57.2610 -57.2593 -57.2555 -57.2552 -57.2426 -57.2418
   -57.2407 -57.2407 -57.2305 -57.2302 -57.2118 -57.2115 -57.2113 -57.2105
   -57.2059 -57.2040 -57.1944 -57.1938 -57.1919 -57.1914 -57.1797 -57.1793
   -57.1653 -57.1650 -57.1586 -57.1580 -57.1563 -57.1556 -57.1528 -57.1514
   -57.1495 -57.1484 -57.1483 -57.1480 -57.1443 -57.1440 -57.1424 -57.1407
   -23.5362 -21.8731 -21.2335 -15.8810 -14.5065 -12.9123 -10.6146  -8.9330
    -8.6021  -8.5999  -8.1119  -7.9769  -7.7769  -7.7762  -7.6192  -7.1603
    -7.1584  -6.9911  -6.9901  -6.9601  -6.8421  -6.8320  -6.8315  -6.8314
    -6.8297  -6.6717  -6.6705  -6.6358  -6.6356  -6.6353  -6.6350  -6.5922
    -6.4895  -6.4889  -6.4884  -6.4880  -6.4309  -6.4303  -6.1565  -6.1564
    -6.1560  -6.1559  -6.1423  -6.1419  -6.1401  -6.1398  -6.0966  -6.0948
    -6.0583  -6.0582  -5.9682  -5.9047  -5.9044  -5.8230  -5.8227  -5.8224
    -5.8223  -5.8082  -5.8080  -5.5654  -5.4235  -5.4234  -5.2789  -5.2785
    -5.1163  -5.1153  -5.0754  -5.0729  -5.0715  -5.0708  -5.0656  -5.0601
    -5.0543  -5.0123  -5.0122  -4.9891  -4.9648  -4.9642  -4.9640  -4.9637
    -4.9626  -4.9621  -4.9029  -4.9021  -4.8375  -4.8362  -4.8065  -4.8057
    -4.7989  -4.7982  -4.7976  -4.7954  -4.7369  -4.5649  -4.5641  -4.5637
    -4.5627  -4.5621  -4.5607  -4.5170  -4.5166  -4.5152  -4.5148  -4.4663
    -4.4646  -4.4209  -4.4195  -4.3914  -4.2770  -4.2764  -4.2173  -4.2152
    -4.1916  -4.1910  -4.1371  -4.1370  -4.1369  -4.1364  -4.1029  -4.1025
    -3.9406  -3.9387  -3.8288  -3.8282  -3.7790  -3.7783  -3.7778  -3.7766
    -3.7734  -3.7709  -3.6600  -3.6027  -3.6014  -3.4900  -3.4882  -3.4778
    -3.4770  -3.4763  -3.4755  -3.3639  -3.3605  -3.3584  -3.3582  -3.3536
    -3.3528  -3.3515  -3.3504  -3.2089  -3.2075  -3.1710  -3.1682  -3.0599
    -3.0597  -3.0594  -3.0593  -3.0072  -3.0070  -3.0052  -3.0050  -2.9303
    -2.9289  -2.9084  -2.9078  -2.9063  -2.9052  -2.8882  -2.8877  -2.7874
    -2.7868  -2.7364  -2.7359  -2.7034  -2.7032  -2.7025  -2.7018  -2.6592
    -2.6571  -2.6377  -2.6371  -2.5692  -2.5680  -2.5488  -2.5470  -2.4504
    -2.4481  -2.4455  -2.4452  -2.4370  -2.3973  -2.3658  -2.2962  -2.2959
    -2.2958  -2.2953  -1.7733  -1.7654  -1.6274  -0.5559  -0.5546  -0.5519
    -0.5476  -0.2352  -0.2348  -0.2328  -0.2327  -0.1166  -0.1154   0.8884
     0.9088

          k =-0.0217 0.0375 0.0000 (101030 PWs)   bands (ev):

  -105.9900-105.9884-105.9873-105.9857-105.9850-105.9841-105.9840-105.9835
  -105.9829-105.9824-105.9821-105.9818-105.9814-105.9809-105.9804-105.9803
  -105.9800-105.9799-105.9794-105.9791-105.9789-105.9787-105.9784-105.9782
  -105.9779-105.9775-105.9771-105.9768-105.9750-105.9745-105.9726-105.9717
   -57.4161 -57.4086 -57.4082 -57.4059 -57.4053 -57.4013 -57.3955 -57.3945
   -57.3940 -57.3936 -57.3916 -57.3909 -57.3861 -57.3853 -57.3836 -57.3831
   -57.3817 -57.3737 -57.3725 -57.3713 -57.3618 -57.3613 -57.3600 -57.3436
   -57.3433 -57.3421 -57.3366 -57.3365 -57.3314 -57.3308 -57.3158 -57.3090
   -57.3084 -57.3071 -57.3055 -57.3006 -57.3002 -57.2971 -57.2948 -57.2946
   -57.2936 -57.2927 -57.2914 -57.2856 -57.2852 -57.2846 -57.2841 -57.2835
   -57.2824 -57.2796 -57.2756 -57.2752 -57.2722 -57.2702 -57.2692 -57.2661
   -57.2657 -57.2649 -57.2642 -57.2634 -57.2578 -57.2470 -57.2465 -57.2416
   -57.2407 -57.2381 -57.2365 -57.2216 -57.2211 -57.2120 -57.2100 -57.2081
   -57.2023 -57.2007 -57.1993 -57.1989 -57.1895 -57.1866 -57.1850 -57.1760
   -57.1678 -57.1619 -57.1605 -57.1588 -57.1550 -57.1542 -57.1533 -57.1516
   -57.1508 -57.1487 -57.1481 -57.1464 -57.1453 -57.1436 -57.1424 -57.1407
   -23.5362 -21.8731 -21.2336 -15.8810 -14.5065 -12.9124 -10.6146  -8.9330
    -8.7146  -8.2738  -8.2716  -8.1117  -7.9769  -7.6203  -7.2620  -7.2279
    -7.2278  -6.9611  -6.9567  -6.9556  -6.8817  -6.8816  -6.8654  -6.8633
    -6.8389  -6.7539  -6.6772  -6.6764  -6.6619  -6.6618  -6.6084  -6.5921
    -6.5651  -6.4981  -6.4980  -6.3385  -6.3373  -6.3089  -6.3083  -6.2038
    -6.2036  -6.1842  -6.1568  -6.1566  -6.0896  -6.0893  -6.0306  -6.0304
    -6.0163  -6.0147  -5.9754  -5.9750  -5.9693  -5.9673  -5.8257  -5.7372
    -5.7345  -5.7181  -5.6053  -5.6039  -5.5643  -5.3197  -5.3193  -5.2722
    -5.2384  -5.2380  -5.1235  -5.1226  -5.0950  -5.0941  -5.0928  -5.0871
    -5.0636  -5.0101  -5.0081  -4.9954  -4.9920  -4.9874  -4.9797  -4.9779
    -4.9756  -4.9478  -4.9467  -4.9118  -4.9073  -4.8860  -4.8849  -4.8391
    -4.7560  -4.7458  -4.7453  -4.7367  -4.6961  -4.6226  -4.6057  -4.6044
    -4.5404  -4.5211  -4.4933  -4.4847  -4.4832  -4.4401  -4.3918  -4.3546
    -4.3539  -4.3190  -4.3189  -4.2968  -4.2963  -4.2725  -4.2718  -4.2356
    -4.2094  -4.2086  -4.1292  -4.1289  -4.1206  -4.1202  -4.0875  -4.0857
    -3.9600  -3.9590  -3.8402  -3.8288  -3.8277  -3.8209  -3.8189  -3.7219
    -3.7210  -3.6988  -3.6983  -3.6594  -3.6338  -3.6177  -3.6158  -3.5045
    -3.4280  -3.4164  -3.4152  -3.3631  -3.3575  -3.3571  -3.3104  -3.3089
    -3.3080  -3.3072  -3.2901  -3.2299  -3.2295  -3.2272  -3.2247  -3.1969
    -3.1955  -3.1357  -3.0265  -3.0184  -3.0026  -3.0006  -2.9887  -2.9875
    -2.9564  -2.9564  -2.9283  -2.9123  -2.9122  -2.8824  -2.8806  -2.8052
    -2.8049  -2.7887  -2.7884  -2.7608  -2.7202  -2.7195  -2.7170  -2.7164
    -2.6442  -2.6430  -2.6024  -2.5970  -2.5953  -2.5549  -2.5088  -2.5078
    -2.4810  -2.4336  -2.4331  -2.4139  -2.4103  -2.3989  -2.2564  -2.1346
    -2.1258  -1.6285  -1.5000  -1.4997  -1.4091  -1.4081  -1.2797  -1.2771
    -0.5738  -0.4506  -0.4429   0.4881   0.4894   0.6205   0.6226   0.6910
     1.0260

          k = 0.0433 0.0000 0.0000 (101030 PWs)   bands (ev):

  -105.9901-105.9880-105.9876-105.9857-105.9849-105.9842-105.9838-105.9836
  -105.9831-105.9822-105.9820-105.9817-105.9814-105.9808-105.9806-105.9804
  -105.9800-105.9798-105.9796-105.9791-105.9788-105.9786-105.9783-105.9782
  -105.9780-105.9775-105.9771-105.9768-105.9750-105.9745-105.9726-105.9718
   -57.4162 -57.4088 -57.4083 -57.4055 -57.4054 -57.4013 -57.3953 -57.3947
   -57.3939 -57.3938 -57.3911 -57.3909 -57.3861 -57.3856 -57.3836 -57.3825
   -57.3823 -57.3739 -57.3722 -57.3715 -57.3617 -57.3613 -57.3600 -57.3438
   -57.3429 -57.3423 -57.3368 -57.3364 -57.3311 -57.3310 -57.3159 -57.3087
   -57.3086 -57.3065 -57.3061 -57.3004 -57.3002 -57.2973 -57.2947 -57.2945
   -57.2932 -57.2932 -57.2913 -57.2855 -57.2853 -57.2847 -57.2839 -57.2833
   -57.2826 -57.2793 -57.2757 -57.2754 -57.2722 -57.2697 -57.2696 -57.2659
   -57.2656 -57.2652 -57.2641 -57.2636 -57.2578 -57.2468 -57.2467 -57.2416
   -57.2407 -57.2375 -57.2371 -57.2216 -57.2212 -57.2119 -57.2093 -57.2087
   -57.2019 -57.2013 -57.1996 -57.1984 -57.1897 -57.1859 -57.1855 -57.1760
   -57.1679 -57.1616 -57.1609 -57.1585 -57.1553 -57.1542 -57.1527 -57.1519
   -57.1502 -57.1496 -57.1483 -57.1461 -57.1451 -57.1436 -57.1425 -57.1407
   -23.5362 -21.8731 -21.2336 -15.8810 -14.5065 -12.9124 -10.6146  -8.9330
    -8.7146  -8.2731  -8.2723  -8.1116  -7.9769  -7.6202  -7.2620  -7.2282
    -7.2275  -6.9616  -6.9566  -6.9554  -6.8821  -6.8813  -6.8648  -6.8638
    -6.8390  -6.7538  -6.6768  -6.6767  -6.6621  -6.6616  -6.6084  -6.5920
    -6.5652  -6.4981  -6.4980  -6.3380  -6.3378  -6.3087  -6.3085  -6.2038
    -6.2037  -6.1842  -6.1570  -6.1565  -6.0897  -6.0893  -6.0305  -6.0304
    -6.0156  -6.0153  -5.9758  -5.9751  -5.9692  -5.9671  -5.8257  -5.7373
    -5.7345  -5.7181  -5.6049  -5.6040  -5.5646  -5.3203  -5.3187  -5.2721
    -5.2382  -5.2381  -5.1237  -5.1224  -5.0951  -5.0943  -5.0925  -5.0870
    -5.0634  -5.0100  -5.0087  -4.9935  -4.9921  -4.9882  -4.9803  -4.9779
    -4.9760  -4.9479  -4.9461  -4.9118  -4.9073  -4.8857  -4.8851  -4.8391
    -4.7560  -4.7457  -4.7454  -4.7367  -4.6960  -4.6225  -4.6062  -4.6037
    -4.5404  -4.5211  -4.4934  -4.4841  -4.4837  -4.4401  -4.3919  -4.3544
    -4.3541  -4.3191  -4.3187  -4.2967  -4.2965  -4.2722  -4.2722  -4.2356
    -4.2089  -4.2089  -4.1292  -4.1289  -4.1205  -4.1203  -4.0870  -4.0861
    -3.9597  -3.9594  -3.8404  -3.8286  -3.8280  -3.8198  -3.8196  -3.7239
    -3.7209  -3.6989  -3.6982  -3.6568  -3.6340  -3.6176  -3.6162  -3.5045
    -3.4280  -3.4179  -3.4144  -3.3633  -3.3578  -3.3570  -3.3101  -3.3089
    -3.3081  -3.3066  -3.2900  -3.2301  -3.2293  -3.2266  -3.2258  -3.1962
    -3.1962  -3.1357  -3.0264  -3.0185  -3.0019  -3.0014  -2.9882  -2.9881
    -2.9566  -2.9562  -2.9282  -2.9130  -2.9115  -2.8818  -2.8813  -2.8052
    -2.8049  -2.7886  -2.7884  -2.7608  -2.7200  -2.7195  -2.7168  -2.7166
    -2.6437  -2.6434  -2.6024  -2.5964  -2.5958  -2.5549  -2.5084  -2.5080
    -2.4798  -2.4342  -2.4331  -2.4124  -2.4110  -2.4012  -2.2565  -2.1331
    -2.1271  -1.6284  -1.5002  -1.4995  -1.4087  -1.4084  -1.2817  -1.2750
    -0.5739  -0.4469  -0.4465   0.4870   0.4902   0.6188   0.6251   0.6901
     1.0261

     the Fermi energy is    -0.9416 ev

!    total energy              =   -8954.35737561 Ry
     Harris-Foulkes estimate   =   -8954.35737511 Ry
     estimated scf accuracy    <       0.00000008 Ry

     The total energy is the sum of the following terms:

     one-electron contribution =  -81583.65170919 Ry
     hartree contribution      =   40623.81683995 Ry
     xc contribution           =    -856.20314281 Ry
     ewald contribution        =   32861.69455706 Ry
     smearing contrib. (-TS)   =      -0.01392063 Ry

     convergence has been achieved in   7 iterations

     Forces acting on atoms (Ry/au):


     negative rho (up, down):  2.971E-03 0.000E+00
     atom    1 type  1   force =    -0.00002616    0.00000594   -0.02381425
     atom    2 type  1   force =     0.00001260   -0.00000924    0.02386524
     atom    3 type  1   force =     0.00000375   -0.00000543   -0.02396714
     atom    4 type  1   force =     0.00000646   -0.00001304    0.02392945
     atom    5 type  1   force =    -0.00001053   -0.00000518   -0.02400086
     atom    6 type  1   force =     0.00000015   -0.00000371    0.02397334
     atom    7 type  1   force =    -0.00000014   -0.00001506   -0.02387936
     atom    8 type  1   force =    -0.00000315    0.00004138    0.02401712
     atom    9 type  1   force =    -0.00004487    0.00003435   -0.02400991
     atom   10 type  1   force =     0.00000910   -0.00023677    0.02368598
     atom   11 type  1   force =     0.00000308   -0.00003503   -0.02387869
     atom   12 type  1   force =    -0.00015625    0.00009618    0.02382616
     atom   13 type  1   force =     0.00001314   -0.00000680   -0.02400019
     atom   14 type  1   force =     0.00003293   -0.00001123    0.02392333
     atom   15 type  1   force =    -0.00000105   -0.00000729   -0.02408783
     atom   16 type  1   force =     0.00000301    0.00003912    0.02402204
     atom   17 type  1   force =     0.00004596    0.00003309   -0.02402705
     atom   18 type  1   force =    -0.00001625   -0.00000358    0.02388455
     atom   19 type  1   force =    -0.00000002   -0.00000714   -0.02377095
     atom   20 type  1   force =     0.00015593    0.00009617    0.02382639
     atom   21 type  1   force =     0.00002746    0.00003792   -0.02377966
     atom   22 type  1   force =     0.00000231   -0.00002345    0.02395956
     atom   23 type  1   force =     0.00000276   -0.00001787   -0.02389119
     atom   24 type  1   force =     0.00000884    0.00000098    0.02392522
     atom   25 type  1   force =     0.00002615    0.00000335   -0.02381938
     atom   26 type  1   force =     0.00000161   -0.00000926    0.02386350
     atom   27 type  1   force =    -0.00000610   -0.00003408   -0.02391627
     atom   28 type  1   force =    -0.00000664   -0.00001375    0.02394051
     atom   29 type  1   force =    -0.00002965    0.00003462   -0.02379717
     atom   30 type  1   force =    -0.00003391   -0.00001041    0.02393291
     atom   31 type  1   force =    -0.00000127   -0.00000797   -0.02365980
     atom   32 type  1   force =    -0.00000923    0.00000097    0.02392972
     atom   33 type  2   force =     0.00013236   -0.00016557    0.00060819
     atom   34 type  2   force =     0.00000906    0.00109484   -0.00033547
     atom   35 type  2   force =     0.00007523    0.00067802    0.00011324
     atom   36 type  3   force =     0.00001868   -0.00025883    0.00008888
     atom   37 type  3   force =     0.00028960    0.00002475   -0.00011547
     atom   38 type  3   force =     0.00005816   -0.00008046   -0.00005033
     atom   39 type  3   force =    -0.00037988    0.00027215   -0.00038803
     atom   40 type  3   force =    -0.00022428   -0.00055868    0.00041806
     atom   41 type  4   force =    -0.00031949    0.00014286   -0.00006863
     atom   42 type  4   force =     0.00029209    0.00022673    0.00000482
     atom   43 type  4   force =    -0.00011355    0.00009828   -0.00005518
     atom   44 type  4   force =    -0.00034434    0.00024558   -0.00017015
     atom   45 type  4   force =    -0.00007010    0.00002176   -0.00015845
     atom   46 type  4   force =     0.00039722   -0.00012288    0.00010059
     atom   47 type  4   force =     0.00000409   -0.00013869   -0.00017866
     atom   48 type  4   force =     0.00016517   -0.00142763   -0.00001872

     Total force =     0.135224     Total SCF correction =     0.001336
 !ASE

     Writing output data file calc.save
 
     init_run     :     83.39s CPU     91.26s WALL (       1 calls)
     electrons    : 107367.78s CPU 113715.69s WALL (      25 calls)
     update_pot   :    127.92s CPU    129.79s WALL (      24 calls)
     forces       :   1075.92s CPU   1081.21s WALL (      25 calls)

     Called by init_run:
     wfcinit      :     75.80s CPU     83.47s WALL (       1 calls)
     potinit      :      2.55s CPU      2.64s WALL (       1 calls)

     Called by electrons:
     c_bands      :  85162.32s CPU  90717.38s WALL (     348 calls)
     sum_band     :  15216.92s CPU  15329.35s WALL (     348 calls)
     v_of_rho     :    186.86s CPU    204.86s WALL (     372 calls)
     newd         :    935.71s CPU   1006.72s WALL (     372 calls)
     mix_rho      :   5912.66s CPU   6452.38s WALL (     348 calls)

     Called by c_bands:
     init_us_2    :    572.39s CPU    573.62s WALL (    7220 calls)
     cegterg      :  80493.63s CPU  86049.65s WALL (    3480 calls)

     Called by *egterg:
     h_psi        :  57012.95s CPU  57188.84s WALL (   14888 calls)
     s_psi        :   5718.61s CPU   5846.35s WALL (   14888 calls)
     g_psi        :     76.49s CPU     76.46s WALL (   11398 calls)
     cdiaghg      :   5022.87s CPU   5021.02s WALL (   14628 calls)

     Called by h_psi:
     add_vuspsi   :   5874.54s CPU   5987.47s WALL (   14888 calls)

     General routines
     calbec       :   8419.44s CPU   8444.35s WALL (   18618 calls)
     fft          :    319.65s CPU    340.45s WALL (    6155 calls)
     ffts         :   2931.54s CPU   3470.39s WALL (  351160 calls)
     fftw         :  43272.07s CPU  43310.53s WALL ( 6607556 calls)
     interpolate  :     38.86s CPU     40.98s WALL (     720 calls)
     davcio       :      0.03s CPU      3.74s WALL (      10 calls)
 
     Parallel routines
     fft_scatter  :  16554.23s CPU  16976.99s WALL ( 6964871 calls)
 
     PWSCF        :     1d    6h12m CPU        1d    7h58m WALL

 
   This run was terminated on:   2: 2:51   8Apr2019            

=------------------------------------------------------------------------------=
   JOB DONE.
=------------------------------------------------------------------------------=
