  python dir          : /gpfs/pace1/project/chbe-medford/medford-share/gits/frozen/ben_espresso_8_24_2017/espresso
  espresso dir        : /nv/hp22/amedford6/medford-shared/builds/espresso/5.1.r11289-pybeef/intel-16.0+mvapich2-2.2+mkl-11.3/espresso-5.1.r11289-pybeef/bin
  pseudo dir          : /gpfs/pace1/project/chbe-medford/medford-share/data/pseudos/SSSP_eff_PBE
  ase-espresso py git : GITVERSION



     Program PWSCF v.5.1rc2 starts on  9Feb2019 at 22:10:47 

     This program is part of the open-source Quantum ESPRESSO suite
     for quantum simulation of materials; please cite
         "P. Giannozzi et al., J. Phys.:Condens. Matter 21 395502 (2009);
          URL http://www.quantum-espresso.org", 
     in publications or presentations arising from this work. More details at
     http://www.quantum-espresso.org/quote

     Parallel version (MPI), running on    12 processors
     R & G space division:  proc/nbgrp/npool/nimage =      12
     Reading input from pw.inp
     Message from routine read_cards :
     DEPRECATED: no units specified in CELL_PARAMETERS card

     Current dimensions of program PWSCF are:
     Max number of different atomic species (ntypx) = 10
     Max number of k-points (npk) =  40000
     Max angular momentum in pseudopotentials (lmaxx) =  3

     IMPORTANT: XC functional enforced from input :
     Exchange-correlation      = PBE ( 1  4  3  4 0)
     Any further DFT definition will be discarded
     Please, verify this is what you really want

               file Rh.UPF: wavefunction(s)  4S 5S 4D renormalized

     Subspace diagonalization in iterative solution of the eigenvalue problem:
     a serial algorithm will be used

 
     Parallelization info
     --------------------
     sticks:   dense  smooth     PW     G-vecs:    dense   smooth      PW
     Min         783     384    101               170307    58219    7897
     Max         784     385    102               170320    58245    7906
     Sum        9403    4615   1213              2043787   698753   94833
 


     bravais-lattice index     =            0
     lattice parameter (alat)  =       1.8897  a.u.
     unit-cell volume          =   20124.8147 (a.u.)^3
     number of atoms/cell      =           48
     number of atomic types    =            4
     number of electrons       =       590.00
     number of Kohn-Sham states=          305
     kinetic-energy cutoff     =      40.4243  Ry
     charge density cutoff     =     330.7439  Ry
     convergence threshold     =      7.3E-07
     mixing beta               =       0.2000
     number of iterations used =            8  local-TF  mixing
     Exchange-correlation      = PBE ( 1  4  3  4 0)
     nstep                     =           50


     celldm(1)=   1.889726  celldm(2)=   0.000000  celldm(3)=   0.000000
     celldm(4)=   0.000000  celldm(5)=   0.000000  celldm(6)=   0.000000

     crystal axes: (cart. coord. in units of alat)
               a(1) = (  10.757640   0.000000   0.000000 )  
               a(2) = (  -5.378820   9.316389   0.000000 )  
               a(3) = (   0.000000   0.000000  29.755734 )  

     reciprocal axes: (cart. coord. in units 2 pi/alat)
               b(1) = (  0.092957  0.053669  0.000000 )  
               b(2) = (  0.000000  0.107338  0.000000 )  
               b(3) = (  0.000000  0.000000  0.033607 )  


     PseudoPot. # 1 for Rh read from file:
     /gpfs/pace1/project/chbe-medford/medford-share/data/pseudos/SSSP_eff_PBE/Rh.UPF
     MD5 check sum: ceb12254454c5aaeede670f925ab9aba
     Pseudo is Projector augmented-wave + core cor, Zval = 17.0
     Generated using "atomic" code by A. Dal Corso  v.5.1
     Shape of augmentation charge: PSQ
     Using radial grid of 1233 points,  6 beta functions with: 
                l(1) =   0
                l(2) =   0
                l(3) =   1
                l(4) =   1
                l(5) =   2
                l(6) =   2
     Q(r) pseudized with 0 coefficients 


     PseudoPot. # 2 for O  read from file:
     /gpfs/pace1/project/chbe-medford/medford-share/data/pseudos/SSSP_eff_PBE/O.UPF
     MD5 check sum: 734c27235a0248c51dbae37a1fbe46ec
     Pseudo is Ultrasoft + core correction, Zval =  6.0
     Generated by new atomic code, or converted to UPF format
     Using radial grid of  737 points,  5 beta functions with: 
                l(1) =   0
                l(2) =   0
                l(3) =   1
                l(4) =   1
                l(5) =   2
     Q(r) pseudized with  8 coefficients,  rinner =    0.900   0.900   0.900
                                                       0.900   0.900

     PseudoPot. # 3 for C  read from file:
     /gpfs/pace1/project/chbe-medford/medford-share/data/pseudos/SSSP_eff_PBE/C.UPF
     MD5 check sum: d1aef80898a10debaa0f26306b886e00
     Pseudo is Ultrasoft + core correction, Zval =  4.0
     Generated by new atomic code, or converted to UPF format
     Using radial grid of  721 points,  4 beta functions with: 
                l(1) =   0
                l(2) =   0
                l(3) =   1
                l(4) =   1
     Q(r) pseudized with  8 coefficients,  rinner =    1.100   1.100   1.100


     PseudoPot. # 4 for  H read from file:
     /gpfs/pace1/project/chbe-medford/medford-share/data/pseudos/SSSP_eff_PBE/H.UPF
     MD5 check sum: 36633979392af7100e6f6632747262d3
     Pseudo is Ultrasoft, Zval =  1.0
     Generated using "atomic" code by A. Dal Corso  v.5.0.99 svn rev. 10869
     Using radial grid of  929 points,  2 beta functions with: 
                l(1) =   0
                l(2) =   0
     Q(r) pseudized with 0 coefficients 


     atomic species   valence    mass     pseudopotential
        Rh1           17.00   102.90550     Rh( 1.00)
        O1             6.00    15.99940     O ( 1.00)
        C1             4.00    12.01100     C ( 1.00)
        H1             1.00     1.00794      H( 1.00)

     No symmetry found



   Cartesian axes

     site n.     atom                  positions (alat units)
         1           Rh1 tau(   1) = (   0.0000000   0.0000000  10.0000000  )
         2           Rh1 tau(   2) = (   1.3447050   0.7763658  12.1958940  )
         3           Rh1 tau(   3) = (  -1.3447050   2.3290973  10.0000000  )
         4           Rh1 tau(   4) = (   0.0000000   3.1054631  12.1958940  )
         5           Rh1 tau(   5) = (  -2.6894099   4.6581946  10.0000000  )
         6           Rh1 tau(   6) = (  -1.3447050   5.4345604  12.1958940  )
         7           Rh1 tau(   7) = (  -4.0341149   6.9872920  10.0000000  )
         8           Rh1 tau(   8) = (  -2.6894099   7.7636577  12.1958940  )
         9           Rh1 tau(   9) = (   2.6894099   0.0000000  10.0000000  )
        10           Rh1 tau(  10) = (   4.0341149   0.7763658  12.1958940  )
        11           Rh1 tau(  11) = (   1.3447050   2.3290973  10.0000000  )
        12           Rh1 tau(  12) = (   2.6894099   3.1054631  12.1958940  )
        13           Rh1 tau(  13) = (   0.0000000   4.6581946  10.0000000  )
        14           Rh1 tau(  14) = (   1.3447050   5.4345604  12.1958940  )
        15           Rh1 tau(  15) = (  -1.3447050   6.9872920  10.0000000  )
        16           Rh1 tau(  16) = (   0.0000000   7.7636577  12.1958940  )
        17           Rh1 tau(  17) = (   5.3788199   0.0000000  10.0000000  )
        18           Rh1 tau(  18) = (   6.7235248   0.7763658  12.1958940  )
        19           Rh1 tau(  19) = (   4.0341149   2.3290973  10.0000000  )
        20           Rh1 tau(  20) = (   5.3788199   3.1054631  12.1958940  )
        21           Rh1 tau(  21) = (   2.6894099   4.6581946  10.0000000  )
        22           Rh1 tau(  22) = (   4.0341149   5.4345604  12.1958940  )
        23           Rh1 tau(  23) = (   1.3447050   6.9872920  10.0000000  )
        24           Rh1 tau(  24) = (   2.6894099   7.7636577  12.1958940  )
        25           Rh1 tau(  25) = (   8.0682298   0.0000000  10.0000000  )
        26           Rh1 tau(  26) = (   9.4129348   0.7763658  12.1958940  )
        27           Rh1 tau(  27) = (   6.7235248   2.3290973  10.0000000  )
        28           Rh1 tau(  28) = (   8.0682298   3.1054631  12.1958940  )
        29           Rh1 tau(  29) = (   5.3788199   4.6581946  10.0000000  )
        30           Rh1 tau(  30) = (   6.7235248   5.4345604  12.1958940  )
        31           Rh1 tau(  31) = (   4.0341149   6.9872920  10.0000000  )
        32           Rh1 tau(  32) = (   5.3788199   7.7636577  12.1958940  )
        33           O1  tau(  33) = (   4.3552000   6.8148056  16.8475662  )
        34           O1  tau(  34) = (   4.3040000   2.2390000  14.6958940  )
        35           O1  tau(  35) = (   4.3549000   1.7938933  16.9224415  )
        36           C1  tau(  36) = (   4.3412000   4.5263101  17.6263566  )
        37           C1  tau(  37) = (   4.3363000   4.1052607  16.1604357  )
        38           C1  tau(  38) = (   4.3366000   6.0346773  17.7983881  )
        39           C1  tau(  39) = (   4.3031000   6.5403549  19.2173289  )
        40           C1  tau(  40) = (   4.3336000   2.6024018  16.0048636  )
        41           H1  tau(  41) = (   5.2315000   4.1306822  18.1284043  )
        42           H1  tau(  42) = (   3.4567000   4.1242707  18.1337093  )
        43           H1  tau(  43) = (   5.2251000   4.5000101  15.6551096  )
        44           H1  tau(  44) = (   3.4451000   4.5029197  15.6618701  )
        45           H1  tau(  45) = (   3.3904000   6.1936467  19.7082451  )
        46           H1  tau(  46) = (   5.1825000   6.1786997  19.7557339  )
        47           H1  tau(  47) = (   4.3126000   7.6338201  19.2197914  )
        48           H1  tau(  48) = (   4.3021000   1.2641262  14.5874250  )

     number of k points=     4  Fermi-Dirac smearing, width (Ry)=  0.0073
                       cart. coord. in units 2pi/alat
        k(    1) = (   0.0000000   0.0000000   0.0000000), wk =   0.5000000
        k(    2) = (   0.0000000  -0.0536689   0.0000000), wk =   0.5000000
        k(    3) = (   0.0464786  -0.0268344   0.0000000), wk =   0.5000000
        k(    4) = (  -0.0464786  -0.0268344   0.0000000), wk =   0.5000000

     Dense  grid:  2043787 G-vectors     FFT dimensions: ( 120, 120, 360)

     Smooth grid:   698753 G-vectors     FFT dimensions: (  90,  90, 240)

     Largest allocated arrays     est. size (Mb)     dimensions
        Kohn-Sham Wavefunctions        33.95 Mb     (    7295,  305)
        NL pseudopotentials            74.69 Mb     (    7295,  671)
        Each V/rho on FFT grid          6.59 Mb     (  432000)
        Each G-vector array             1.30 Mb     (  170320)
        G-vector shells                 0.42 Mb     (   54910)
     Largest temporary arrays     est. size (Mb)     dimensions
        Auxiliary wavefunctions       135.80 Mb     (    7295, 1220)
        Each subspace H/S matrix       22.71 Mb     (    1220, 1220)
        Each <psi_i|beta_j> matrix      3.12 Mb     (     671,  305)
        Arrays for rho mixing          52.73 Mb     (  432000,    8)

     Check: negative/imaginary core charge=   -0.000001    0.000000

     Initial potential from superposition of free atoms
     Check: negative starting charge=   -0.061592

     starting charge  589.98404, renormalised to  590.00000

     negative rho (up, down):  6.159E-02 0.000E+00
     Starting wfc are  360 randomized atomic wfcs
     Checking if some PAW data can be deallocated... 

     total cpu time spent up to now is       60.6 secs

     per-process dynamical memory:   397.4 Mb

     Self-consistent Calculation

     iteration #  1     ecut=    40.42 Ry     beta=0.20
     Davidson diagonalization with overlap
     ethr =  1.00E-02,  avg # of iterations =  2.8

     negative rho (up, down):  4.385E-02 0.000E+00

     total cpu time spent up to now is      167.8 secs

     total energy              =  -15207.43814616 Ry
     Harris-Foulkes estimate   =  -15207.93373105 Ry
     estimated scf accuracy    <       6.45649322 Ry

     iteration #  2     ecut=    40.42 Ry     beta=0.20
     Davidson diagonalization with overlap
     ethr =  1.09E-03,  avg # of iterations =  2.8

     negative rho (up, down):  2.057E-02 0.000E+00

     total cpu time spent up to now is      260.0 secs

     total energy              =  -15206.10965990 Ry
     Harris-Foulkes estimate   =  -15207.60833104 Ry
     estimated scf accuracy    <       4.71230624 Ry

     iteration #  3     ecut=    40.42 Ry     beta=0.20
     Davidson diagonalization with overlap
     ethr =  7.99E-04,  avg # of iterations =  4.5

     negative rho (up, down):  1.983E-02 0.000E+00

     total cpu time spent up to now is      364.1 secs

     total energy              =  -15206.76395913 Ry
     Harris-Foulkes estimate   =  -15206.76773495 Ry
     estimated scf accuracy    <       3.92810915 Ry

     iteration #  4     ecut=    40.42 Ry     beta=0.20
     Davidson diagonalization with overlap
     ethr =  6.66E-04,  avg # of iterations =  1.5

     negative rho (up, down):  1.762E-02 0.000E+00

     total cpu time spent up to now is      455.9 secs

     total energy              =  -15206.66560212 Ry
     Harris-Foulkes estimate   =  -15206.77671315 Ry
     estimated scf accuracy    <       3.84013720 Ry

     iteration #  5     ecut=    40.42 Ry     beta=0.20
     Davidson diagonalization with overlap
     ethr =  6.51E-04,  avg # of iterations =  1.0

     negative rho (up, down):  1.194E-02 0.000E+00

     total cpu time spent up to now is      545.8 secs

     total energy              =  -15206.46779226 Ry
     Harris-Foulkes estimate   =  -15206.68153386 Ry
     estimated scf accuracy    <       1.94155703 Ry

     iteration #  6     ecut=    40.42 Ry     beta=0.20
     Davidson diagonalization with overlap
     ethr =  3.29E-04,  avg # of iterations =  4.0

     negative rho (up, down):  9.025E-03 0.000E+00

     total cpu time spent up to now is      643.0 secs

     total energy              =  -15206.55674058 Ry
     Harris-Foulkes estimate   =  -15206.58835525 Ry
     estimated scf accuracy    <       0.35767134 Ry

     iteration #  7     ecut=    40.42 Ry     beta=0.20
     Davidson diagonalization with overlap
     ethr =  6.06E-05,  avg # of iterations =  3.2

     negative rho (up, down):  4.565E-03 0.000E+00

     total cpu time spent up to now is      738.7 secs

     total energy              =  -15206.51842893 Ry
     Harris-Foulkes estimate   =  -15206.56870210 Ry
     estimated scf accuracy    <       0.27292709 Ry

     iteration #  8     ecut=    40.42 Ry     beta=0.20
     Davidson diagonalization with overlap
     ethr =  4.63E-05,  avg # of iterations =  2.5

     negative rho (up, down):  3.232E-03 0.000E+00

     total cpu time spent up to now is      831.9 secs

     total energy              =  -15206.51404451 Ry
     Harris-Foulkes estimate   =  -15206.52930383 Ry
     estimated scf accuracy    <       0.15478937 Ry

     iteration #  9     ecut=    40.42 Ry     beta=0.20
     Davidson diagonalization with overlap
     ethr =  2.62E-05,  avg # of iterations =  3.0

     negative rho (up, down):  1.884E-03 0.000E+00

     total cpu time spent up to now is      924.6 secs

     total energy              =  -15206.50612092 Ry
     Harris-Foulkes estimate   =  -15206.52042212 Ry
     estimated scf accuracy    <       0.30863402 Ry

     iteration # 10     ecut=    40.42 Ry     beta=0.20
     Davidson diagonalization with overlap
     ethr =  2.62E-05,  avg # of iterations =  5.0

     negative rho (up, down):  2.019E-03 0.000E+00

     total cpu time spent up to now is     1023.1 secs

     total energy              =  -15206.48412777 Ry
     Harris-Foulkes estimate   =  -15206.50982005 Ry
     estimated scf accuracy    <       0.51354920 Ry

     iteration # 11     ecut=    40.42 Ry     beta=0.20
     Davidson diagonalization with overlap
     ethr =  2.62E-05,  avg # of iterations =  4.0

     negative rho (up, down):  1.517E-02 0.000E+00

     total cpu time spent up to now is     1117.1 secs

     total energy              =  -15206.49231968 Ry
     Harris-Foulkes estimate   =  -15206.49942318 Ry
     estimated scf accuracy    <       0.08105573 Ry

     iteration # 12     ecut=    40.42 Ry     beta=0.20
     Davidson diagonalization with overlap
     ethr =  1.37E-05,  avg # of iterations =  3.2

     negative rho (up, down):  6.965E-02 0.000E+00

     total cpu time spent up to now is     1208.2 secs

     total energy              =  -15206.48968150 Ry
     Harris-Foulkes estimate   =  -15206.49405504 Ry
     estimated scf accuracy    <       0.05969586 Ry

     iteration # 13     ecut=    40.42 Ry     beta=0.20
     Davidson diagonalization with overlap
     ethr =  1.01E-05,  avg # of iterations =  3.5

     negative rho (up, down):  9.353E-02 0.000E+00

     total cpu time spent up to now is     1302.3 secs

     total energy              =  -15206.48579410 Ry
     Harris-Foulkes estimate   =  -15206.49072877 Ry
     estimated scf accuracy    <       0.04553990 Ry

     iteration # 14     ecut=    40.42 Ry     beta=0.20
     Davidson diagonalization with overlap
     c_bands:  2 eigenvalues not converged
     ethr =  7.72E-06,  avg # of iterations =  7.2

     negative rho (up, down):  1.535E-01 0.000E+00

     total cpu time spent up to now is     1404.9 secs

     total energy              =  -15206.48578508 Ry
     Harris-Foulkes estimate   =  -15206.48791254 Ry
     estimated scf accuracy    <       0.04706200 Ry

     iteration # 15     ecut=    40.42 Ry     beta=0.20
     Davidson diagonalization with overlap
     ethr =  7.72E-06,  avg # of iterations =  4.5

     negative rho (up, down):  1.865E-01 0.000E+00

     total cpu time spent up to now is     1498.2 secs

     total energy              =  -15206.48397795 Ry
     Harris-Foulkes estimate   =  -15206.48668268 Ry
     estimated scf accuracy    <       0.05437090 Ry

     iteration # 16     ecut=    40.42 Ry     beta=0.20
     Davidson diagonalization with overlap
     ethr =  7.72E-06,  avg # of iterations =  1.0

     negative rho (up, down):  2.158E-01 0.000E+00

     total cpu time spent up to now is     1587.0 secs

     total energy              =  -15206.47991966 Ry
     Harris-Foulkes estimate   =  -15206.48452653 Ry
     estimated scf accuracy    <       0.02798007 Ry

     iteration # 17     ecut=    40.42 Ry     beta=0.20
     Davidson diagonalization with overlap
     ethr =  4.74E-06,  avg # of iterations = 11.8

     negative rho (up, down):  2.109E-01 0.000E+00

     total cpu time spent up to now is     1695.5 secs

     total energy              =  -15206.48113862 Ry
     Harris-Foulkes estimate   =  -15206.48149477 Ry
     estimated scf accuracy    <       0.01458903 Ry

     iteration # 18     ecut=    40.42 Ry     beta=0.20
     Davidson diagonalization with overlap
     ethr =  2.47E-06,  avg # of iterations =  1.2

     negative rho (up, down):  1.630E-01 0.000E+00

     total cpu time spent up to now is     1784.3 secs

     total energy              =  -15206.47610515 Ry
     Harris-Foulkes estimate   =  -15206.48120513 Ry
     estimated scf accuracy    <       0.01422488 Ry

     iteration # 19     ecut=    40.42 Ry     beta=0.20
     Davidson diagonalization with overlap
     ethr =  2.41E-06,  avg # of iterations =  2.8

     negative rho (up, down):  1.363E-01 0.000E+00

     total cpu time spent up to now is     1877.1 secs

     total energy              =  -15206.47449691 Ry
     Harris-Foulkes estimate   =  -15206.47653841 Ry
     estimated scf accuracy    <       0.00829959 Ry

     iteration # 20     ecut=    40.42 Ry     beta=0.20
     Davidson diagonalization with overlap
     ethr =  1.41E-06,  avg # of iterations =  4.5

     negative rho (up, down):  8.228E-02 0.000E+00

     total cpu time spent up to now is     1972.1 secs

     total energy              =  -15206.47140378 Ry
     Harris-Foulkes estimate   =  -15206.47457848 Ry
     estimated scf accuracy    <       0.00613971 Ry

     iteration # 21     ecut=    40.42 Ry     beta=0.20
     Davidson diagonalization with overlap
     ethr =  1.04E-06,  avg # of iterations =  6.8

     negative rho (up, down):  7.870E-02 0.000E+00

     total cpu time spent up to now is     2072.4 secs

     total energy              =  -15206.47159074 Ry
     Harris-Foulkes estimate   =  -15206.47182678 Ry
     estimated scf accuracy    <       0.00283068 Ry

     iteration # 22     ecut=    40.42 Ry     beta=0.20
     Davidson diagonalization with overlap
     c_bands:  4 eigenvalues not converged
     ethr =  4.80E-07,  avg # of iterations =  9.2

     negative rho (up, down):  6.977E-02 0.000E+00

     total cpu time spent up to now is     2178.0 secs

     total energy              =  -15206.47125288 Ry
     Harris-Foulkes estimate   =  -15206.47172996 Ry
     estimated scf accuracy    <       0.00205582 Ry

     iteration # 23     ecut=    40.42 Ry     beta=0.20
     Davidson diagonalization with overlap
     ethr =  3.48E-07,  avg # of iterations =  5.8

     negative rho (up, down):  6.666E-02 0.000E+00

     total cpu time spent up to now is     2277.7 secs

     total energy              =  -15206.47120666 Ry
     Harris-Foulkes estimate   =  -15206.47133239 Ry
     estimated scf accuracy    <       0.00070800 Ry

     iteration # 24     ecut=    40.42 Ry     beta=0.20
     Davidson diagonalization with overlap
     ethr =  1.20E-07,  avg # of iterations = 14.0

     negative rho (up, down):  6.895E-02 0.000E+00

     total cpu time spent up to now is     2401.1 secs

     total energy              =  -15206.47119676 Ry
     Harris-Foulkes estimate   =  -15206.47122721 Ry
     estimated scf accuracy    <       0.00039756 Ry

     iteration # 25     ecut=    40.42 Ry     beta=0.20
     Davidson diagonalization with overlap
     c_bands:  1 eigenvalues not converged
     ethr =  6.74E-08,  avg # of iterations = 12.8

     negative rho (up, down):  6.998E-02 0.000E+00

     total cpu time spent up to now is     2512.2 secs

     total energy              =  -15206.47121165 Ry
     Harris-Foulkes estimate   =  -15206.47121706 Ry
     estimated scf accuracy    <       0.00020330 Ry

     iteration # 26     ecut=    40.42 Ry     beta=0.20
     Davidson diagonalization with overlap
     ethr =  3.45E-08,  avg # of iterations =  3.2

     negative rho (up, down):  7.234E-02 0.000E+00

     total cpu time spent up to now is     2603.3 secs

     total energy              =  -15206.47119724 Ry
     Harris-Foulkes estimate   =  -15206.47121378 Ry
     estimated scf accuracy    <       0.00014752 Ry

     iteration # 27     ecut=    40.42 Ry     beta=0.20
     Davidson diagonalization with overlap
     ethr =  2.50E-08,  avg # of iterations =  3.8

     negative rho (up, down):  7.150E-02 0.000E+00

     total cpu time spent up to now is     2700.9 secs

     total energy              =  -15206.47119330 Ry
     Harris-Foulkes estimate   =  -15206.47120688 Ry
     estimated scf accuracy    <       0.00006439 Ry

     iteration # 28     ecut=    40.42 Ry     beta=0.20
     Davidson diagonalization with overlap
     ethr =  1.09E-08,  avg # of iterations =  5.0

     negative rho (up, down):  7.294E-02 0.000E+00

     total cpu time spent up to now is     2798.4 secs

     total energy              =  -15206.47118757 Ry
     Harris-Foulkes estimate   =  -15206.47119644 Ry
     estimated scf accuracy    <       0.00004028 Ry

     iteration # 29     ecut=    40.42 Ry     beta=0.20
     Davidson diagonalization with overlap
     ethr =  6.83E-09,  avg # of iterations =  3.2

     negative rho (up, down):  7.377E-02 0.000E+00

     total cpu time spent up to now is     2890.7 secs

     total energy              =  -15206.47118401 Ry
     Harris-Foulkes estimate   =  -15206.47118858 Ry
     estimated scf accuracy    <       0.00002740 Ry

     iteration # 30     ecut=    40.42 Ry     beta=0.20
     Davidson diagonalization with overlap
     ethr =  4.64E-09,  avg # of iterations = 12.5

     negative rho (up, down):  7.302E-02 0.000E+00

     total cpu time spent up to now is     2997.2 secs

     total energy              =  -15206.47118134 Ry
     Harris-Foulkes estimate   =  -15206.47118462 Ry
     estimated scf accuracy    <       0.00002015 Ry

     iteration # 31     ecut=    40.42 Ry     beta=0.20
     Davidson diagonalization with overlap
     c_bands:  1 eigenvalues not converged
     c_bands:  2 eigenvalues not converged
     c_bands:  1 eigenvalues not converged
     ethr =  3.42E-09,  avg # of iterations = 24.5

     negative rho (up, down):  7.302E-02 0.000E+00

     total cpu time spent up to now is     3148.0 secs

     total energy              =  -15206.47118425 Ry
     Harris-Foulkes estimate   =  -15206.47118457 Ry
     estimated scf accuracy    <       0.00004393 Ry

     iteration # 32     ecut=    40.42 Ry     beta=0.20
     Davidson diagonalization with overlap
     ethr =  3.42E-09,  avg # of iterations =  2.2

     negative rho (up, down):  7.297E-02 0.000E+00

     total cpu time spent up to now is     3240.0 secs

     total energy              =  -15206.47118281 Ry
     Harris-Foulkes estimate   =  -15206.47118431 Ry
     estimated scf accuracy    <       0.00004220 Ry

     iteration # 33     ecut=    40.42 Ry     beta=0.20
     Davidson diagonalization with overlap
     ethr =  3.42E-09,  avg # of iterations =  1.0

     negative rho (up, down):  7.266E-02 0.000E+00

     total cpu time spent up to now is     3329.4 secs

     total energy              =  -15206.47117899 Ry
     Harris-Foulkes estimate   =  -15206.47118292 Ry
     estimated scf accuracy    <       0.00003272 Ry

     iteration # 34     ecut=    40.42 Ry     beta=0.20
     Davidson diagonalization with overlap
     c_bands:  3 eigenvalues not converged
     c_bands:  1 eigenvalues not converged
     ethr =  3.42E-09,  avg # of iterations = 14.5

     negative rho (up, down):  7.269E-02 0.000E+00

     total cpu time spent up to now is     3442.6 secs

     total energy              =  -15206.47118018 Ry
     Harris-Foulkes estimate   =  -15206.47118026 Ry
     estimated scf accuracy    <       0.00001876 Ry

     iteration # 35     ecut=    40.42 Ry     beta=0.20
     Davidson diagonalization with overlap
     c_bands:  1 eigenvalues not converged
     ethr =  3.18E-09,  avg # of iterations = 10.0

     negative rho (up, down):  7.270E-02 0.000E+00

     total cpu time spent up to now is     3549.3 secs

     total energy              =  -15206.47117997 Ry
     Harris-Foulkes estimate   =  -15206.47118041 Ry
     estimated scf accuracy    <       0.00001833 Ry

     iteration # 36     ecut=    40.42 Ry     beta=0.20
     Davidson diagonalization with overlap
     c_bands:  2 eigenvalues not converged
     ethr =  3.11E-09,  avg # of iterations =  5.8

     negative rho (up, down):  7.261E-02 0.000E+00

     total cpu time spent up to now is     3647.0 secs

     total energy              =  -15206.47117744 Ry
     Harris-Foulkes estimate   =  -15206.47118010 Ry
     estimated scf accuracy    <       0.00001664 Ry

     iteration # 37     ecut=    40.42 Ry     beta=0.20
     Davidson diagonalization with overlap
     c_bands:  2 eigenvalues not converged
     c_bands:  2 eigenvalues not converged
     ethr =  2.82E-09,  avg # of iterations = 11.8

     negative rho (up, down):  7.249E-02 0.000E+00

     total cpu time spent up to now is     3755.4 secs

     total energy              =  -15206.47117822 Ry
     Harris-Foulkes estimate   =  -15206.47117869 Ry
     estimated scf accuracy    <       0.00001070 Ry

     iteration # 38     ecut=    40.42 Ry     beta=0.20
     Davidson diagonalization with overlap
     c_bands:  2 eigenvalues not converged
     c_bands:  1 eigenvalues not converged
     ethr =  1.81E-09,  avg # of iterations = 12.2

     negative rho (up, down):  7.230E-02 0.000E+00

     total cpu time spent up to now is     3866.9 secs

     total energy              =  -15206.47117814 Ry
     Harris-Foulkes estimate   =  -15206.47117902 Ry
     estimated scf accuracy    <       0.00000988 Ry

     iteration # 39     ecut=    40.42 Ry     beta=0.20
     Davidson diagonalization with overlap
     c_bands:  1 eigenvalues not converged
     c_bands:  2 eigenvalues not converged
     ethr =  1.67E-09,  avg # of iterations = 10.5

     negative rho (up, down):  7.224E-02 0.000E+00

     total cpu time spent up to now is     3971.6 secs

     total energy              =  -15206.47117844 Ry
     Harris-Foulkes estimate   =  -15206.47117862 Ry
     estimated scf accuracy    <       0.00000798 Ry

     iteration # 40     ecut=    40.42 Ry     beta=0.20
     Davidson diagonalization with overlap
     c_bands:  1 eigenvalues not converged
     ethr =  1.35E-09,  avg # of iterations =  8.8

     negative rho (up, down):  7.211E-02 0.000E+00

     total cpu time spent up to now is     4070.8 secs

     total energy              =  -15206.47117790 Ry
     Harris-Foulkes estimate   =  -15206.47117866 Ry
     estimated scf accuracy    <       0.00000753 Ry

     iteration # 41     ecut=    40.42 Ry     beta=0.20
     Davidson diagonalization with overlap
     c_bands:  2 eigenvalues not converged
     ethr =  1.28E-09,  avg # of iterations =  5.8

     negative rho (up, down):  7.212E-02 0.000E+00

     total cpu time spent up to now is     4167.2 secs

     total energy              =  -15206.47117748 Ry
     Harris-Foulkes estimate   =  -15206.47117814 Ry
     estimated scf accuracy    <       0.00000643 Ry

     iteration # 42     ecut=    40.42 Ry     beta=0.20
     Davidson diagonalization with overlap
     c_bands:  3 eigenvalues not converged
     ethr =  1.09E-09,  avg # of iterations =  7.8

     negative rho (up, down):  7.219E-02 0.000E+00

     total cpu time spent up to now is     4269.8 secs

     total energy              =  -15206.47117769 Ry
     Harris-Foulkes estimate   =  -15206.47117802 Ry
     estimated scf accuracy    <       0.00000663 Ry

     iteration # 43     ecut=    40.42 Ry     beta=0.20
     Davidson diagonalization with overlap
     c_bands:  2 eigenvalues not converged
     ethr =  1.09E-09,  avg # of iterations =  5.8

     negative rho (up, down):  7.226E-02 0.000E+00

     total cpu time spent up to now is     4367.9 secs

     total energy              =  -15206.47117762 Ry
     Harris-Foulkes estimate   =  -15206.47117839 Ry
     estimated scf accuracy    <       0.00000555 Ry

     iteration # 44     ecut=    40.42 Ry     beta=0.20
     Davidson diagonalization with overlap
     c_bands:  1 eigenvalues not converged
     c_bands:  1 eigenvalues not converged
     ethr =  9.41E-10,  avg # of iterations = 21.0

     negative rho (up, down):  7.230E-02 0.000E+00

     total cpu time spent up to now is     4508.2 secs

     total energy              =  -15206.47117791 Ry
     Harris-Foulkes estimate   =  -15206.47117815 Ry
     estimated scf accuracy    <       0.00000594 Ry

     iteration # 45     ecut=    40.42 Ry     beta=0.20
     Davidson diagonalization with overlap
     ethr =  9.41E-10,  avg # of iterations =  6.5

     negative rho (up, down):  7.217E-02 0.000E+00

     total cpu time spent up to now is     4605.1 secs

     total energy              =  -15206.47117692 Ry
     Harris-Foulkes estimate   =  -15206.47117794 Ry
     estimated scf accuracy    <       0.00000541 Ry

     iteration # 46     ecut=    40.42 Ry     beta=0.20
     Davidson diagonalization with overlap
     ethr =  9.17E-10,  avg # of iterations =  2.0

     negative rho (up, down):  7.203E-02 0.000E+00

     total cpu time spent up to now is     4696.4 secs

     total energy              =  -15206.47117679 Ry
     Harris-Foulkes estimate   =  -15206.47117708 Ry
     estimated scf accuracy    <       0.00000363 Ry

     iteration # 47     ecut=    40.42 Ry     beta=0.20
     Davidson diagonalization with overlap
     ethr =  6.16E-10,  avg # of iterations =  1.0

     negative rho (up, down):  7.191E-02 0.000E+00

     total cpu time spent up to now is     4786.8 secs

     total energy              =  -15206.47117649 Ry
     Harris-Foulkes estimate   =  -15206.47117684 Ry
     estimated scf accuracy    <       0.00000266 Ry

     iteration # 48     ecut=    40.42 Ry     beta=0.20
     Davidson diagonalization with overlap
     c_bands:  2 eigenvalues not converged
     ethr =  4.51E-10,  avg # of iterations = 11.2

     negative rho (up, down):  7.186E-02 0.000E+00

     total cpu time spent up to now is     4891.6 secs

     total energy              =  -15206.47117650 Ry
     Harris-Foulkes estimate   =  -15206.47117663 Ry
     estimated scf accuracy    <       0.00000166 Ry

     iteration # 49     ecut=    40.42 Ry     beta=0.20
     Davidson diagonalization with overlap
     c_bands:  1 eigenvalues not converged
     c_bands:  2 eigenvalues not converged
     c_bands:  2 eigenvalues not converged
     ethr =  2.82E-10,  avg # of iterations = 22.2

     negative rho (up, down):  7.184E-02 0.000E+00

     total cpu time spent up to now is     5034.6 secs

     total energy              =  -15206.47117651 Ry
     Harris-Foulkes estimate   =  -15206.47117681 Ry
     estimated scf accuracy    <       0.00000310 Ry

     iteration # 50     ecut=    40.42 Ry     beta=0.20
     Davidson diagonalization with overlap
     c_bands:  1 eigenvalues not converged
     c_bands:  1 eigenvalues not converged
     ethr =  2.82E-10,  avg # of iterations = 11.0

     negative rho (up, down):  7.191E-02 0.000E+00

     total cpu time spent up to now is     5138.0 secs

     total energy              =  -15206.47117610 Ry
     Harris-Foulkes estimate   =  -15206.47117665 Ry
     estimated scf accuracy    <       0.00000183 Ry

     iteration # 51     ecut=    40.42 Ry     beta=0.20
     Davidson diagonalization with overlap
     ethr =  2.82E-10,  avg # of iterations = 12.8

     negative rho (up, down):  7.191E-02 0.000E+00

     total cpu time spent up to now is     5272.5 secs

     total energy              =  -15206.47117819 Ry
     Harris-Foulkes estimate   =  -15206.47117908 Ry
     estimated scf accuracy    <       0.00006117 Ry

     iteration # 52     ecut=    40.42 Ry     beta=0.20
     Davidson diagonalization with overlap
     ethr =  2.82E-10,  avg # of iterations =  1.0

     negative rho (up, down):  7.192E-02 0.000E+00

     total cpu time spent up to now is     5361.1 secs

     total energy              =  -15206.47117696 Ry
     Harris-Foulkes estimate   =  -15206.47117820 Ry
     estimated scf accuracy    <       0.00005624 Ry

     iteration # 53     ecut=    40.42 Ry     beta=0.20
     Davidson diagonalization with overlap
     ethr =  2.82E-10,  avg # of iterations =  1.8

     negative rho (up, down):  7.184E-02 0.000E+00

     total cpu time spent up to now is     5450.1 secs

     total energy              =  -15206.47117634 Ry
     Harris-Foulkes estimate   =  -15206.47117700 Ry
     estimated scf accuracy    <       0.00004766 Ry

     iteration # 54     ecut=    40.42 Ry     beta=0.20
     Davidson diagonalization with overlap
     c_bands:  2 eigenvalues not converged
     ethr =  2.82E-10,  avg # of iterations =  8.0

     negative rho (up, down):  7.189E-02 0.000E+00

     total cpu time spent up to now is     5551.4 secs

     total energy              =  -15206.47117593 Ry
     Harris-Foulkes estimate   =  -15206.47117645 Ry
     estimated scf accuracy    <       0.00004119 Ry

     iteration # 55     ecut=    40.42 Ry     beta=0.20
     Davidson diagonalization with overlap
     c_bands:  2 eigenvalues not converged
     c_bands:  1 eigenvalues not converged
     ethr =  2.82E-10,  avg # of iterations = 10.5

     negative rho (up, down):  7.185E-02 0.000E+00

     total cpu time spent up to now is     5655.7 secs

     total energy              =  -15206.47117583 Ry
     Harris-Foulkes estimate   =  -15206.47117603 Ry
     estimated scf accuracy    <       0.00003622 Ry

     iteration # 56     ecut=    40.42 Ry     beta=0.20
     Davidson diagonalization with overlap
     c_bands:  2 eigenvalues not converged
     c_bands:  1 eigenvalues not converged
     ethr =  2.82E-10,  avg # of iterations = 12.0

     negative rho (up, down):  7.185E-02 0.000E+00

     total cpu time spent up to now is     5764.0 secs

     total energy              =  -15206.47117583 Ry
     Harris-Foulkes estimate   =  -15206.47117594 Ry
     estimated scf accuracy    <       0.00003329 Ry

     iteration # 57     ecut=    40.42 Ry     beta=0.20
     Davidson diagonalization with overlap
     c_bands:  1 eigenvalues not converged
     c_bands:  3 eigenvalues not converged
     ethr =  2.82E-10,  avg # of iterations = 10.5

     negative rho (up, down):  7.184E-02 0.000E+00

     total cpu time spent up to now is     5869.6 secs

     total energy              =  -15206.47117586 Ry
     Harris-Foulkes estimate   =  -15206.47117590 Ry
     estimated scf accuracy    <       0.00003171 Ry

     iteration # 58     ecut=    40.42 Ry     beta=0.20
     Davidson diagonalization with overlap
     c_bands:  2 eigenvalues not converged
     c_bands:  1 eigenvalues not converged
     ethr =  2.82E-10,  avg # of iterations = 10.5

     negative rho (up, down):  7.185E-02 0.000E+00

     total cpu time spent up to now is     5974.5 secs

     total energy              =  -15206.47117589 Ry
     Harris-Foulkes estimate   =  -15206.47117590 Ry
     estimated scf accuracy    <       0.00003075 Ry

     iteration # 59     ecut=    40.42 Ry     beta=0.20
     Davidson diagonalization with overlap
     c_bands:  1 eigenvalues not converged
     c_bands:  1 eigenvalues not converged
     ethr =  2.82E-10,  avg # of iterations = 10.5

     negative rho (up, down):  7.221E-02 0.000E+00

     total cpu time spent up to now is     6081.7 secs

     total energy              =  -15206.47117029 Ry
     Harris-Foulkes estimate   =  -15206.47117593 Ry
     estimated scf accuracy    <       0.00002997 Ry

     iteration # 60     ecut=    40.42 Ry     beta=0.20
     Davidson diagonalization with overlap
     c_bands:  3 eigenvalues not converged
     c_bands:  2 eigenvalues not converged
     c_bands:  2 eigenvalues not converged
     ethr =  2.82E-10,  avg # of iterations = 22.0

     negative rho (up, down):  7.206E-02 0.000E+00

     total cpu time spent up to now is     6276.5 secs

     total energy              =  -15206.47117829 Ry
     Harris-Foulkes estimate   =  -15206.47118834 Ry
     estimated scf accuracy    <       0.00010288 Ry

     iteration # 61     ecut=    40.42 Ry     beta=0.20
     Davidson diagonalization with overlap
     ethr =  2.82E-10,  avg # of iterations =  9.5

     negative rho (up, down):  7.200E-02 0.000E+00

     total cpu time spent up to now is     6446.6 secs

     total energy              =  -15206.47117816 Ry
     Harris-Foulkes estimate   =  -15206.47118159 Ry
     estimated scf accuracy    <       0.00005006 Ry

     iteration # 62     ecut=    40.42 Ry     beta=0.20
     Davidson diagonalization with overlap
     ethr =  2.82E-10,  avg # of iterations = 11.2

     negative rho (up, down):  7.192E-02 0.000E+00

     total cpu time spent up to now is     6576.2 secs

     total energy              =  -15206.47117752 Ry
     Harris-Foulkes estimate   =  -15206.47117866 Ry
     estimated scf accuracy    <       0.00002064 Ry

     iteration # 63     ecut=    40.42 Ry     beta=0.20
     Davidson diagonalization with overlap
     ethr =  2.82E-10,  avg # of iterations =  1.8

     negative rho (up, down):  7.186E-02 0.000E+00

     total cpu time spent up to now is     6666.6 secs

     total energy              =  -15206.47117569 Ry
     Harris-Foulkes estimate   =  -15206.47117761 Ry
     estimated scf accuracy    <       0.00001408 Ry

     iteration # 64     ecut=    40.42 Ry     beta=0.20
     Davidson diagonalization with overlap
     ethr =  2.82E-10,  avg # of iterations = 10.5

     negative rho (up, down):  7.187E-02 0.000E+00

     total cpu time spent up to now is     6811.7 secs

     total energy              =  -15206.47117694 Ry
     Harris-Foulkes estimate   =  -15206.47117742 Ry
     estimated scf accuracy    <       0.00003363 Ry

     iteration # 65     ecut=    40.42 Ry     beta=0.20
     Davidson diagonalization with overlap
     ethr =  2.82E-10,  avg # of iterations =  1.0

     negative rho (up, down):  7.188E-02 0.000E+00

     total cpu time spent up to now is     6903.4 secs

     total energy              =  -15206.47117556 Ry
     Harris-Foulkes estimate   =  -15206.47117695 Ry
     estimated scf accuracy    <       0.00003088 Ry

     iteration # 66     ecut=    40.42 Ry     beta=0.20
     Davidson diagonalization with overlap
     c_bands:  2 eigenvalues not converged
     c_bands:  2 eigenvalues not converged
     c_bands:  2 eigenvalues not converged
     ethr =  2.82E-10,  avg # of iterations = 16.5

     negative rho (up, down):  7.186E-02 0.000E+00

     total cpu time spent up to now is     7022.3 secs

     total energy              =  -15206.47117614 Ry
     Harris-Foulkes estimate   =  -15206.47117622 Ry
     estimated scf accuracy    <       0.00000289 Ry

     iteration # 67     ecut=    40.42 Ry     beta=0.20
     Davidson diagonalization with overlap
     c_bands:  1 eigenvalues not converged
     c_bands:  1 eigenvalues not converged
     c_bands:  1 eigenvalues not converged
     ethr =  2.82E-10,  avg # of iterations = 15.2

     negative rho (up, down):  7.185E-02 0.000E+00

     total cpu time spent up to now is     7135.2 secs

     total energy              =  -15206.47117654 Ry
     Harris-Foulkes estimate   =  -15206.47117651 Ry
     estimated scf accuracy    <       0.00000268 Ry

     iteration # 68     ecut=    40.42 Ry     beta=0.20
     Davidson diagonalization with overlap
     c_bands:  1 eigenvalues not converged
     c_bands:  1 eigenvalues not converged
     ethr =  2.82E-10,  avg # of iterations = 10.5

     negative rho (up, down):  7.183E-02 0.000E+00

     total cpu time spent up to now is     7242.0 secs

     total energy              =  -15206.47117661 Ry
     Harris-Foulkes estimate   =  -15206.47117659 Ry
     estimated scf accuracy    <       0.00000310 Ry

     iteration # 69     ecut=    40.42 Ry     beta=0.20
     Davidson diagonalization with overlap
     c_bands:  3 eigenvalues not converged
     c_bands:  2 eigenvalues not converged
     ethr =  2.82E-10,  avg # of iterations = 10.5

     negative rho (up, down):  7.183E-02 0.000E+00

     total cpu time spent up to now is     7349.4 secs

     total energy              =  -15206.47117647 Ry
     Harris-Foulkes estimate   =  -15206.47117666 Ry
     estimated scf accuracy    <       0.00000388 Ry

     iteration # 70     ecut=    40.42 Ry     beta=0.20
     Davidson diagonalization with overlap
     c_bands:  4 eigenvalues not converged
     c_bands:  1 eigenvalues not converged
     c_bands:  1 eigenvalues not converged
     ethr =  2.82E-10,  avg # of iterations = 17.5

     negative rho (up, down):  7.180E-02 0.000E+00

     total cpu time spent up to now is     7468.8 secs

     total energy              =  -15206.47117644 Ry
     Harris-Foulkes estimate   =  -15206.47117654 Ry
     estimated scf accuracy    <       0.00000263 Ry

     iteration # 71     ecut=    40.42 Ry     beta=0.20
     Davidson diagonalization with overlap
     c_bands:  1 eigenvalues not converged
     ethr =  2.82E-10,  avg # of iterations =  7.8

     negative rho (up, down):  7.176E-02 0.000E+00

     total cpu time spent up to now is     7571.9 secs

     total energy              =  -15206.47117644 Ry
     Harris-Foulkes estimate   =  -15206.47117647 Ry
     estimated scf accuracy    <       0.00000216 Ry

     iteration # 72     ecut=    40.42 Ry     beta=0.20
     Davidson diagonalization with overlap
     c_bands:  3 eigenvalues not converged
     ethr =  2.82E-10,  avg # of iterations =  5.8

     negative rho (up, down):  7.169E-02 0.000E+00

     total cpu time spent up to now is     7671.3 secs

     total energy              =  -15206.47117674 Ry
     Harris-Foulkes estimate   =  -15206.47117645 Ry
     estimated scf accuracy    <       0.00000208 Ry

     iteration # 73     ecut=    40.42 Ry     beta=0.20
     Davidson diagonalization with overlap
     c_bands:  3 eigenvalues not converged
     c_bands:  3 eigenvalues not converged
     c_bands:  1 eigenvalues not converged
     ethr =  2.82E-10,  avg # of iterations = 18.2

     negative rho (up, down):  7.172E-02 0.000E+00

     total cpu time spent up to now is     7794.5 secs

     total energy              =  -15206.47117624 Ry
     Harris-Foulkes estimate   =  -15206.47117700 Ry
     estimated scf accuracy    <       0.00000940 Ry

     iteration # 74     ecut=    40.42 Ry     beta=0.20
     Davidson diagonalization with overlap
     c_bands:  1 eigenvalues not converged
     c_bands:  1 eigenvalues not converged
     c_bands:  1 eigenvalues not converged
     ethr =  2.82E-10,  avg # of iterations = 15.2

     negative rho (up, down):  7.174E-02 0.000E+00

     total cpu time spent up to now is     7910.4 secs

     total energy              =  -15206.47117625 Ry
     Harris-Foulkes estimate   =  -15206.47117655 Ry
     estimated scf accuracy    <       0.00000515 Ry

     iteration # 75     ecut=    40.42 Ry     beta=0.20
     Davidson diagonalization with overlap
     c_bands:  1 eigenvalues not converged
     c_bands:  1 eigenvalues not converged
     c_bands:  2 eigenvalues not converged
     ethr =  2.82E-10,  avg # of iterations = 15.2

     negative rho (up, down):  7.175E-02 0.000E+00

     total cpu time spent up to now is     8021.7 secs

     total energy              =  -15206.47117633 Ry
     Harris-Foulkes estimate   =  -15206.47117632 Ry
     estimated scf accuracy    <       0.00000346 Ry

     iteration # 76     ecut=    40.42 Ry     beta=0.20
     Davidson diagonalization with overlap
     c_bands:  1 eigenvalues not converged
     c_bands:  1 eigenvalues not converged
     ethr =  2.82E-10,  avg # of iterations = 10.8

     negative rho (up, down):  7.177E-02 0.000E+00

     total cpu time spent up to now is     8127.0 secs

     total energy              =  -15206.47117639 Ry
     Harris-Foulkes estimate   =  -15206.47117635 Ry
     estimated scf accuracy    <       0.00000342 Ry

     iteration # 77     ecut=    40.42 Ry     beta=0.20
     Davidson diagonalization with overlap
     c_bands:  1 eigenvalues not converged
     c_bands:  2 eigenvalues not converged
     ethr =  2.82E-10,  avg # of iterations = 10.5

     negative rho (up, down):  7.179E-02 0.000E+00

     total cpu time spent up to now is     8231.9 secs

     total energy              =  -15206.47117645 Ry
     Harris-Foulkes estimate   =  -15206.47117640 Ry
     estimated scf accuracy    <       0.00000364 Ry

     iteration # 78     ecut=    40.42 Ry     beta=0.20
     Davidson diagonalization with overlap
     c_bands:  1 eigenvalues not converged
     c_bands:  1 eigenvalues not converged
     ethr =  2.82E-10,  avg # of iterations = 10.5

     negative rho (up, down):  7.181E-02 0.000E+00

     total cpu time spent up to now is     8334.7 secs

     total energy              =  -15206.47117635 Ry
     Harris-Foulkes estimate   =  -15206.47117646 Ry
     estimated scf accuracy    <       0.00000389 Ry

     iteration # 79     ecut=    40.42 Ry     beta=0.20
     Davidson diagonalization with overlap
     c_bands:  2 eigenvalues not converged
     c_bands:  1 eigenvalues not converged
     ethr =  2.82E-10,  avg # of iterations = 10.5

     negative rho (up, down):  7.173E-02 0.000E+00

     total cpu time spent up to now is     8439.5 secs

     total energy              =  -15206.47117630 Ry
     Harris-Foulkes estimate   =  -15206.47117639 Ry
     estimated scf accuracy    <       0.00000301 Ry

     iteration # 80     ecut=    40.42 Ry     beta=0.20
     Davidson diagonalization with overlap
     c_bands:  1 eigenvalues not converged
     c_bands:  1 eigenvalues not converged
     ethr =  2.82E-10,  avg # of iterations = 10.5

     negative rho (up, down):  7.171E-02 0.000E+00

     total cpu time spent up to now is     8543.9 secs

     total energy              =  -15206.47117611 Ry
     Harris-Foulkes estimate   =  -15206.47117635 Ry
     estimated scf accuracy    <       0.00000243 Ry

     iteration # 81     ecut=    40.42 Ry     beta=0.20
     Davidson diagonalization with overlap
     c_bands:  2 eigenvalues not converged
     c_bands:  1 eigenvalues not converged
     ethr =  2.82E-10,  avg # of iterations = 11.8

     negative rho (up, down):  7.164E-02 0.000E+00

     total cpu time spent up to now is     8653.8 secs

     total energy              =  -15206.47117597 Ry
     Harris-Foulkes estimate   =  -15206.47117616 Ry
     estimated scf accuracy    <       0.00000102 Ry

     iteration # 82     ecut=    40.42 Ry     beta=0.20
     Davidson diagonalization with overlap
     ethr =  1.72E-10,  avg # of iterations = 13.2

     negative rho (up, down):  7.164E-02 0.000E+00

     total cpu time spent up to now is     8783.5 secs

     total energy              =  -15206.47117838 Ry
     Harris-Foulkes estimate   =  -15206.47117853 Ry
     estimated scf accuracy    <       0.00003363 Ry

     iteration # 83     ecut=    40.42 Ry     beta=0.20
     Davidson diagonalization with overlap
     ethr =  1.72E-10,  avg # of iterations =  1.0

     negative rho (up, down):  7.166E-02 0.000E+00

     total cpu time spent up to now is     8871.3 secs

     total energy              =  -15206.47117792 Ry
     Harris-Foulkes estimate   =  -15206.47117838 Ry
     estimated scf accuracy    <       0.00003238 Ry

     iteration # 84     ecut=    40.42 Ry     beta=0.20
     Davidson diagonalization with overlap
     ethr =  1.72E-10,  avg # of iterations =  1.0

     negative rho (up, down):  7.168E-02 0.000E+00

     total cpu time spent up to now is     8960.4 secs

     total energy              =  -15206.47117779 Ry
     Harris-Foulkes estimate   =  -15206.47117793 Ry
     estimated scf accuracy    <       0.00002898 Ry

     iteration # 85     ecut=    40.42 Ry     beta=0.20
     Davidson diagonalization with overlap
     ethr =  1.72E-10,  avg # of iterations =  1.0

     negative rho (up, down):  7.169E-02 0.000E+00

     total cpu time spent up to now is     9048.3 secs

     total energy              =  -15206.47117766 Ry
     Harris-Foulkes estimate   =  -15206.47117779 Ry
     estimated scf accuracy    <       0.00002809 Ry

     iteration # 86     ecut=    40.42 Ry     beta=0.20
     Davidson diagonalization with overlap
     ethr =  1.72E-10,  avg # of iterations =  1.0

     negative rho (up, down):  7.169E-02 0.000E+00

     total cpu time spent up to now is     9137.8 secs

     total energy              =  -15206.47117782 Ry
     Harris-Foulkes estimate   =  -15206.47117767 Ry
     estimated scf accuracy    <       0.00002710 Ry

     iteration # 87     ecut=    40.42 Ry     beta=0.20
     Davidson diagonalization with overlap
     ethr =  1.72E-10,  avg # of iterations =  1.0

     negative rho (up, down):  7.169E-02 0.000E+00

     total cpu time spent up to now is     9228.6 secs

     total energy              =  -15206.47117780 Ry
     Harris-Foulkes estimate   =  -15206.47117783 Ry
     estimated scf accuracy    <       0.00002791 Ry

     iteration # 88     ecut=    40.42 Ry     beta=0.20
     Davidson diagonalization with overlap
     ethr =  1.72E-10,  avg # of iterations =  1.0

     negative rho (up, down):  7.168E-02 0.000E+00

     total cpu time spent up to now is     9318.1 secs

     total energy              =  -15206.47117800 Ry
     Harris-Foulkes estimate   =  -15206.47117780 Ry
     estimated scf accuracy    <       0.00002780 Ry

     iteration # 89     ecut=    40.42 Ry     beta=0.20
     Davidson diagonalization with overlap
     ethr =  1.72E-10,  avg # of iterations =  1.0

     negative rho (up, down):  7.165E-02 0.000E+00

     total cpu time spent up to now is     9408.8 secs

     total energy              =  -15206.47117820 Ry
     Harris-Foulkes estimate   =  -15206.47117801 Ry
     estimated scf accuracy    <       0.00002887 Ry

     iteration # 90     ecut=    40.42 Ry     beta=0.20
     Davidson diagonalization with overlap
     ethr =  1.72E-10,  avg # of iterations =  1.0

     negative rho (up, down):  7.237E-02 0.000E+00

     total cpu time spent up to now is     9499.6 secs

     total energy              =  -15206.47117155 Ry
     Harris-Foulkes estimate   =  -15206.47117820 Ry
     estimated scf accuracy    <       0.00002972 Ry

     iteration # 91     ecut=    40.42 Ry     beta=0.20
     Davidson diagonalization with overlap
     c_bands:  1 eigenvalues not converged
     ethr =  1.72E-10,  avg # of iterations = 13.2

     negative rho (up, down):  7.191E-02 0.000E+00

     total cpu time spent up to now is     9679.6 secs

     total energy              =  -15206.47117453 Ry
     Harris-Foulkes estimate   =  -15206.47118357 Ry
     estimated scf accuracy    <       0.00008115 Ry

     iteration # 92     ecut=    40.42 Ry     beta=0.20
     Davidson diagonalization with overlap
     ethr =  1.72E-10,  avg # of iterations = 10.2

     negative rho (up, down):  7.191E-02 0.000E+00

     total cpu time spent up to now is     9862.9 secs

     total energy              =  -15206.47117701 Ry
     Harris-Foulkes estimate   =  -15206.47117736 Ry
     estimated scf accuracy    <       0.00000961 Ry

     iteration # 93     ecut=    40.42 Ry     beta=0.20
     Davidson diagonalization with overlap
     c_bands:  2 eigenvalues not converged
     c_bands:  2 eigenvalues not converged
     ethr =  1.72E-10,  avg # of iterations = 10.8

     negative rho (up, down):  7.181E-02 0.000E+00

     total cpu time spent up to now is     9969.0 secs

     total energy              =  -15206.47117681 Ry
     Harris-Foulkes estimate   =  -15206.47117711 Ry
     estimated scf accuracy    <       0.00000738 Ry

     iteration # 94     ecut=    40.42 Ry     beta=0.20
     Davidson diagonalization with overlap
     c_bands:  1 eigenvalues not converged
     c_bands:  1 eigenvalues not converged
     ethr =  1.72E-10,  avg # of iterations = 11.8

     negative rho (up, down):  7.164E-02 0.000E+00

     total cpu time spent up to now is    10076.8 secs

     total energy              =  -15206.47117627 Ry
     Harris-Foulkes estimate   =  -15206.47117687 Ry
     estimated scf accuracy    <       0.00000553 Ry

     iteration # 95     ecut=    40.42 Ry     beta=0.20
     Davidson diagonalization with overlap
     ethr =  1.72E-10,  avg # of iterations = 11.5

     negative rho (up, down):  7.163E-02 0.000E+00

     total cpu time spent up to now is    10225.3 secs

     total energy              =  -15206.47117780 Ry
     Harris-Foulkes estimate   =  -15206.47117861 Ry
     estimated scf accuracy    <       0.00007094 Ry

     iteration # 96     ecut=    40.42 Ry     beta=0.20
     Davidson diagonalization with overlap
     ethr =  1.72E-10,  avg # of iterations =  1.0

     negative rho (up, down):  7.163E-02 0.000E+00

     total cpu time spent up to now is    10317.5 secs

     total energy              =  -15206.47117655 Ry
     Harris-Foulkes estimate   =  -15206.47117782 Ry
     estimated scf accuracy    <       0.00006583 Ry

     iteration # 97     ecut=    40.42 Ry     beta=0.20
     Davidson diagonalization with overlap
     c_bands:  2 eigenvalues not converged
     ethr =  1.72E-10,  avg # of iterations =  6.5

     negative rho (up, down):  7.158E-02 0.000E+00

     total cpu time spent up to now is    10416.3 secs

     total energy              =  -15206.47117676 Ry
     Harris-Foulkes estimate   =  -15206.47117662 Ry
     estimated scf accuracy    <       0.00005352 Ry

     iteration # 98     ecut=    40.42 Ry     beta=0.20
     Davidson diagonalization with overlap
     c_bands:  3 eigenvalues not converged
     c_bands:  1 eigenvalues not converged
     ethr =  1.72E-10,  avg # of iterations = 10.5

     negative rho (up, down):  7.159E-02 0.000E+00

     total cpu time spent up to now is    10523.4 secs

     total energy              =  -15206.47117652 Ry
     Harris-Foulkes estimate   =  -15206.47117683 Ry
     estimated scf accuracy    <       0.00005475 Ry

     iteration # 99     ecut=    40.42 Ry     beta=0.20
     Davidson diagonalization with overlap
     c_bands:  1 eigenvalues not converged
     c_bands:  1 eigenvalues not converged
     ethr =  1.72E-10,  avg # of iterations = 10.5

     negative rho (up, down):  7.156E-02 0.000E+00

     total cpu time spent up to now is    10629.4 secs

     total energy              =  -15206.47117691 Ry
     Harris-Foulkes estimate   =  -15206.47117656 Ry
     estimated scf accuracy    <       0.00005235 Ry

     iteration #100     ecut=    40.42 Ry     beta=0.20
     Davidson diagonalization with overlap
     c_bands:  1 eigenvalues not converged
     c_bands:  1 eigenvalues not converged
     ethr =  1.72E-10,  avg # of iterations = 10.5

     negative rho (up, down):  7.161E-02 0.000E+00

     total cpu time spent up to now is    10734.1 secs

     total energy              =  -15206.47117638 Ry
     Harris-Foulkes estimate   =  -15206.47117693 Ry
     estimated scf accuracy    <       0.00005471 Ry

     iteration #101     ecut=    40.42 Ry     beta=0.20
     Davidson diagonalization with overlap
     c_bands:  1 eigenvalues not converged
     c_bands:  1 eigenvalues not converged
     ethr =  1.72E-10,  avg # of iterations = 14.0

     negative rho (up, down):  7.166E-02 0.000E+00

     total cpu time spent up to now is    10850.0 secs

     total energy              =  -15206.47117687 Ry
     Harris-Foulkes estimate   =  -15206.47117642 Ry
     estimated scf accuracy    <       0.00005085 Ry

     iteration #102     ecut=    40.42 Ry     beta=0.20
     Davidson diagonalization with overlap
     c_bands:  1 eigenvalues not converged
     c_bands:  1 eigenvalues not converged
     ethr =  1.72E-10,  avg # of iterations = 10.5

     negative rho (up, down):  7.165E-02 0.000E+00

     total cpu time spent up to now is    10956.4 secs

     total energy              =  -15206.47117671 Ry
     Harris-Foulkes estimate   =  -15206.47117689 Ry
     estimated scf accuracy    <       0.00005410 Ry

     iteration #103     ecut=    40.42 Ry     beta=0.20
     Davidson diagonalization with overlap
     c_bands:  1 eigenvalues not converged
     c_bands:  1 eigenvalues not converged
     ethr =  1.72E-10,  avg # of iterations = 10.5

     negative rho (up, down):  7.149E-02 0.000E+00

     total cpu time spent up to now is    11069.2 secs

     total energy              =  -15206.47116524 Ry
     Harris-Foulkes estimate   =  -15206.47117672 Ry
     estimated scf accuracy    <       0.00005295 Ry

     iteration #104     ecut=    40.42 Ry     beta=0.20
     Davidson diagonalization with overlap
     c_bands:  4 eigenvalues not converged
     c_bands:  3 eigenvalues not converged
     c_bands:  1 eigenvalues not converged
     ethr =  1.72E-10,  avg # of iterations = 17.0

     negative rho (up, down):  7.159E-02 0.000E+00

     total cpu time spent up to now is    11252.2 secs

     total energy              =  -15206.47117561 Ry
     Harris-Foulkes estimate   =  -15206.47117959 Ry
     estimated scf accuracy    <       0.00006910 Ry

     iteration #105     ecut=    40.42 Ry     beta=0.20
     Davidson diagonalization with overlap
     ethr =  1.72E-10,  avg # of iterations = 10.5

     negative rho (up, down):  7.179E-02 0.000E+00

     total cpu time spent up to now is    11406.0 secs

     total energy              =  -15206.47117731 Ry
     Harris-Foulkes estimate   =  -15206.47118429 Ry
     estimated scf accuracy    <       0.00008939 Ry

     iteration #106     ecut=    40.42 Ry     beta=0.20
     Davidson diagonalization with overlap
     ethr =  1.72E-10,  avg # of iterations =  9.2

     negative rho (up, down):  7.177E-02 0.000E+00

     total cpu time spent up to now is    11577.2 secs

     total energy              =  -15206.47117672 Ry
     Harris-Foulkes estimate   =  -15206.47117870 Ry
     estimated scf accuracy    <       0.00002700 Ry

     iteration #107     ecut=    40.42 Ry     beta=0.20
     Davidson diagonalization with overlap
     ethr =  1.72E-10,  avg # of iterations =  9.5

     negative rho (up, down):  7.171E-02 0.000E+00

     total cpu time spent up to now is    11717.6 secs

     total energy              =  -15206.47117683 Ry
     Harris-Foulkes estimate   =  -15206.47117712 Ry
     estimated scf accuracy    <       0.00000737 Ry

     iteration #108     ecut=    40.42 Ry     beta=0.20
     Davidson diagonalization with overlap
     ethr =  1.72E-10,  avg # of iterations =  1.0

     negative rho (up, down):  7.163E-02 0.000E+00

     total cpu time spent up to now is    11808.8 secs

     total energy              =  -15206.47117619 Ry
     Harris-Foulkes estimate   =  -15206.47117684 Ry
     estimated scf accuracy    <       0.00000541 Ry

     iteration #109     ecut=    40.42 Ry     beta=0.20
     Davidson diagonalization with overlap
     ethr =  1.72E-10,  avg # of iterations = 11.0

     negative rho (up, down):  7.162E-02 0.000E+00

     total cpu time spent up to now is    11945.4 secs

     total energy              =  -15206.47117741 Ry
     Harris-Foulkes estimate   =  -15206.47117728 Ry
     estimated scf accuracy    <       0.00003753 Ry

     iteration #110     ecut=    40.42 Ry     beta=0.20
     Davidson diagonalization with overlap
     ethr =  1.72E-10,  avg # of iterations =  1.0

     negative rho (up, down):  7.166E-02 0.000E+00

     total cpu time spent up to now is    12037.8 secs

     total energy              =  -15206.47117682 Ry
     Harris-Foulkes estimate   =  -15206.47117741 Ry
     estimated scf accuracy    <       0.00003833 Ry

     iteration #111     ecut=    40.42 Ry     beta=0.20
     Davidson diagonalization with overlap
     ethr =  1.72E-10,  avg # of iterations =  1.0

     negative rho (up, down):  7.166E-02 0.000E+00

     total cpu time spent up to now is    12138.9 secs

     total energy              =  -15206.47117648 Ry
     Harris-Foulkes estimate   =  -15206.47117683 Ry
     estimated scf accuracy    <       0.00003515 Ry

     iteration #112     ecut=    40.42 Ry     beta=0.20
     Davidson diagonalization with overlap
     ethr =  1.72E-10,  avg # of iterations =  1.0

     negative rho (up, down):  7.158E-02 0.000E+00

     total cpu time spent up to now is    12233.7 secs

     total energy              =  -15206.47117863 Ry
     Harris-Foulkes estimate   =  -15206.47117649 Ry
     estimated scf accuracy    <       0.00003243 Ry

     iteration #113     ecut=    40.42 Ry     beta=0.20
     Davidson diagonalization with overlap
     c_bands:  2 eigenvalues not converged
     c_bands:  1 eigenvalues not converged
     ethr =  1.72E-10,  avg # of iterations = 19.2

     negative rho (up, down):  7.168E-02 0.000E+00

     total cpu time spent up to now is    12380.2 secs

     total energy              =  -15206.47117587 Ry
     Harris-Foulkes estimate   =  -15206.47117916 Ry
     estimated scf accuracy    <       0.00008415 Ry

     iteration #114     ecut=    40.42 Ry     beta=0.20
     Davidson diagonalization with overlap
     ethr =  1.72E-10,  avg # of iterations = 13.8

     negative rho (up, down):  7.164E-02 0.000E+00

     total cpu time spent up to now is    12534.3 secs

     total energy              =  -15206.47117647 Ry
     Harris-Foulkes estimate   =  -15206.47117663 Ry
     estimated scf accuracy    <       0.00000632 Ry

     iteration #115     ecut=    40.42 Ry     beta=0.20
     Davidson diagonalization with overlap
     ethr =  1.72E-10,  avg # of iterations =  1.0

     negative rho (up, down):  7.160E-02 0.000E+00

     total cpu time spent up to now is    12640.2 secs

     total energy              =  -15206.47117632 Ry
     Harris-Foulkes estimate   =  -15206.47117648 Ry
     estimated scf accuracy    <       0.00000541 Ry

     iteration #116     ecut=    40.42 Ry     beta=0.20
     Davidson diagonalization with overlap
     ethr =  1.72E-10,  avg # of iterations =  1.0

     negative rho (up, down):  7.160E-02 0.000E+00

     total cpu time spent up to now is    12747.4 secs

     total energy              =  -15206.47117629 Ry
     Harris-Foulkes estimate   =  -15206.47117633 Ry
     estimated scf accuracy    <       0.00000437 Ry

     iteration #117     ecut=    40.42 Ry     beta=0.20
     Davidson diagonalization with overlap
     ethr =  1.72E-10,  avg # of iterations =  1.0

     negative rho (up, down):  7.145E-02 0.000E+00

     total cpu time spent up to now is    12856.9 secs

     total energy              =  -15206.47117540 Ry
     Harris-Foulkes estimate   =  -15206.47117629 Ry
     estimated scf accuracy    <       0.00000414 Ry

     iteration #118     ecut=    40.42 Ry     beta=0.20
     Davidson diagonalization with overlap
     ethr =  1.72E-10,  avg # of iterations = 11.5

     negative rho (up, down):  7.157E-02 0.000E+00

     total cpu time spent up to now is    13030.1 secs

     total energy              =  -15206.47117698 Ry
     Harris-Foulkes estimate   =  -15206.47117987 Ry
     estimated scf accuracy    <       0.00004416 Ry

     iteration #119     ecut=    40.42 Ry     beta=0.20
     Davidson diagonalization with overlap
     ethr =  1.72E-10,  avg # of iterations = 13.0

     negative rho (up, down):  7.160E-02 0.000E+00

     total cpu time spent up to now is    13188.7 secs

     total energy              =  -15206.47117695 Ry
     Harris-Foulkes estimate   =  -15206.47117744 Ry
     estimated scf accuracy    <       0.00001402 Ry

     iteration #120     ecut=    40.42 Ry     beta=0.20
     Davidson diagonalization with overlap
     ethr =  1.72E-10,  avg # of iterations =  1.5

     negative rho (up, down):  7.161E-02 0.000E+00

     total cpu time spent up to now is    13284.3 secs

     total energy              =  -15206.47117678 Ry
     Harris-Foulkes estimate   =  -15206.47117699 Ry
     estimated scf accuracy    <       0.00001138 Ry

     iteration #121     ecut=    40.42 Ry     beta=0.20
     Davidson diagonalization with overlap
     c_bands:  4 eigenvalues not converged
     c_bands:  1 eigenvalues not converged
     ethr =  1.72E-10,  avg # of iterations = 12.8

     negative rho (up, down):  7.162E-02 0.000E+00

     total cpu time spent up to now is    13405.7 secs

     total energy              =  -15206.47117686 Ry
     Harris-Foulkes estimate   =  -15206.47117700 Ry
     estimated scf accuracy    <       0.00001623 Ry

     iteration #122     ecut=    40.42 Ry     beta=0.20
     Davidson diagonalization with overlap
     c_bands:  2 eigenvalues not converged
     c_bands:  1 eigenvalues not converged
     ethr =  1.72E-10,  avg # of iterations = 10.5

     negative rho (up, down):  7.162E-02 0.000E+00

     total cpu time spent up to now is    13528.2 secs

     total energy              =  -15206.47117695 Ry
     Harris-Foulkes estimate   =  -15206.47117697 Ry
     estimated scf accuracy    <       0.00001538 Ry

     iteration #123     ecut=    40.42 Ry     beta=0.20
     Davidson diagonalization with overlap
     c_bands:  1 eigenvalues not converged
     ethr =  1.72E-10,  avg # of iterations =  5.8

     negative rho (up, down):  7.161E-02 0.000E+00

     total cpu time spent up to now is    13637.8 secs

     total energy              =  -15206.47117696 Ry
     Harris-Foulkes estimate   =  -15206.47117696 Ry
     estimated scf accuracy    <       0.00001522 Ry

     iteration #124     ecut=    40.42 Ry     beta=0.20
     Davidson diagonalization with overlap
     c_bands:  1 eigenvalues not converged
     ethr =  1.72E-10,  avg # of iterations =  5.8

     negative rho (up, down):  7.162E-02 0.000E+00

     total cpu time spent up to now is    13743.7 secs

     total energy              =  -15206.47117696 Ry
     Harris-Foulkes estimate   =  -15206.47117697 Ry
     estimated scf accuracy    <       0.00001521 Ry

     iteration #125     ecut=    40.42 Ry     beta=0.20
     Davidson diagonalization with overlap
     c_bands:  1 eigenvalues not converged
     ethr =  1.72E-10,  avg # of iterations =  5.8

     negative rho (up, down):  7.163E-02 0.000E+00

     total cpu time spent up to now is    13859.0 secs

     total energy              =  -15206.47117702 Ry
     Harris-Foulkes estimate   =  -15206.47117697 Ry
     estimated scf accuracy    <       0.00001519 Ry

     iteration #126     ecut=    40.42 Ry     beta=0.20
     Davidson diagonalization with overlap
     c_bands:  1 eigenvalues not converged
     ethr =  1.72E-10,  avg # of iterations =  5.8

     negative rho (up, down):  7.190E-02 0.000E+00

     total cpu time spent up to now is    13963.5 secs

     total energy              =  -15206.47117696 Ry
     Harris-Foulkes estimate   =  -15206.47117703 Ry
     estimated scf accuracy    <       0.00001587 Ry

     iteration #127     ecut=    40.42 Ry     beta=0.20
     Davidson diagonalization with overlap
     ethr =  1.72E-10,  avg # of iterations = 10.8

     negative rho (up, down):  7.190E-02 0.000E+00

     total cpu time spent up to now is    14150.5 secs

     total energy              =  -15206.47117759 Ry
     Harris-Foulkes estimate   =  -15206.47118483 Ry
     estimated scf accuracy    <       0.00014457 Ry

     iteration #128     ecut=    40.42 Ry     beta=0.20
     Davidson diagonalization with overlap
     ethr =  1.72E-10,  avg # of iterations = 12.2

     negative rho (up, down):  7.177E-02 0.000E+00

     total cpu time spent up to now is    14326.1 secs

     total energy              =  -15206.47117673 Ry
     Harris-Foulkes estimate   =  -15206.47117954 Ry
     estimated scf accuracy    <       0.00005533 Ry

     iteration #129     ecut=    40.42 Ry     beta=0.20
     Davidson diagonalization with overlap
     ethr =  1.72E-10,  avg # of iterations = 11.8

     negative rho (up, down):  7.160E-02 0.000E+00

     total cpu time spent up to now is    14471.9 secs

     total energy              =  -15206.47117059 Ry
     Harris-Foulkes estimate   =  -15206.47117744 Ry
     estimated scf accuracy    <       0.00004001 Ry

     iteration #130     ecut=    40.42 Ry     beta=0.20
     Davidson diagonalization with overlap
     ethr =  1.72E-10,  avg # of iterations = 10.5

     negative rho (up, down):  7.167E-02 0.000E+00

     total cpu time spent up to now is    14661.6 secs

     total energy              =  -15206.47117575 Ry
     Harris-Foulkes estimate   =  -15206.47118081 Ry
     estimated scf accuracy    <       0.00004912 Ry

     iteration #131     ecut=    40.42 Ry     beta=0.20
     Davidson diagonalization with overlap
     ethr =  1.72E-10,  avg # of iterations = 10.0

     negative rho (up, down):  7.169E-02 0.000E+00

     total cpu time spent up to now is    14831.6 secs

     total energy              =  -15206.47117684 Ry
     Harris-Foulkes estimate   =  -15206.47117707 Ry
     estimated scf accuracy    <       0.00000530 Ry

     iteration #132     ecut=    40.42 Ry     beta=0.20
     Davidson diagonalization with overlap
     ethr =  1.72E-10,  avg # of iterations =  1.0

     negative rho (up, down):  7.170E-02 0.000E+00

     total cpu time spent up to now is    14925.3 secs

     total energy              =  -15206.47117657 Ry
     Harris-Foulkes estimate   =  -15206.47117685 Ry
     estimated scf accuracy    <       0.00000385 Ry

     iteration #133     ecut=    40.42 Ry     beta=0.20
     Davidson diagonalization with overlap
     ethr =  1.72E-10,  avg # of iterations =  1.8

     negative rho (up, down):  7.169E-02 0.000E+00

     total cpu time spent up to now is    15021.0 secs

     total energy              =  -15206.47117656 Ry
     Harris-Foulkes estimate   =  -15206.47117660 Ry
     estimated scf accuracy    <       0.00000202 Ry

     iteration #134     ecut=    40.42 Ry     beta=0.20
     Davidson diagonalization with overlap
     ethr =  1.72E-10,  avg # of iterations =  1.0

     negative rho (up, down):  7.168E-02 0.000E+00

     total cpu time spent up to now is    15114.0 secs

     total energy              =  -15206.47117626 Ry
     Harris-Foulkes estimate   =  -15206.47117657 Ry
     estimated scf accuracy    <       0.00000175 Ry

     iteration #135     ecut=    40.42 Ry     beta=0.20
     Davidson diagonalization with overlap
     ethr =  1.72E-10,  avg # of iterations = 10.0

     negative rho (up, down):  7.168E-02 0.000E+00

     total cpu time spent up to now is    15243.9 secs

     total energy              =  -15206.47117785 Ry
     Harris-Foulkes estimate   =  -15206.47117797 Ry
     estimated scf accuracy    <       0.00003623 Ry

     iteration #136     ecut=    40.42 Ry     beta=0.20
     Davidson diagonalization with overlap
     ethr =  1.72E-10,  avg # of iterations =  1.0

     negative rho (up, down):  7.168E-02 0.000E+00

     total cpu time spent up to now is    15338.4 secs

     total energy              =  -15206.47117918 Ry
     Harris-Foulkes estimate   =  -15206.47117785 Ry
     estimated scf accuracy    <       0.00003562 Ry

     iteration #137     ecut=    40.42 Ry     beta=0.20
     Davidson diagonalization with overlap
     ethr =  1.72E-10,  avg # of iterations =  1.8

     negative rho (up, down):  7.167E-02 0.000E+00

     total cpu time spent up to now is    15435.1 secs

     total energy              =  -15206.47117913 Ry
     Harris-Foulkes estimate   =  -15206.47117923 Ry
     estimated scf accuracy    <       0.00004375 Ry

     iteration #138     ecut=    40.42 Ry     beta=0.20
     Davidson diagonalization with overlap
     ethr =  1.72E-10,  avg # of iterations =  1.0

     negative rho (up, down):  7.167E-02 0.000E+00

     total cpu time spent up to now is    15530.0 secs

     total energy              =  -15206.47117879 Ry
     Harris-Foulkes estimate   =  -15206.47117913 Ry
     estimated scf accuracy    <       0.00004389 Ry

     iteration #139     ecut=    40.42 Ry     beta=0.20
     Davidson diagonalization with overlap
     ethr =  1.72E-10,  avg # of iterations =  1.0

     negative rho (up, down):  7.167E-02 0.000E+00

     total cpu time spent up to now is    15623.6 secs

     total energy              =  -15206.47117834 Ry
     Harris-Foulkes estimate   =  -15206.47117879 Ry
     estimated scf accuracy    <       0.00004278 Ry

     iteration #140     ecut=    40.42 Ry     beta=0.20
     Davidson diagonalization with overlap
     ethr =  1.72E-10,  avg # of iterations =  1.0

     negative rho (up, down):  7.167E-02 0.000E+00

     total cpu time spent up to now is    15716.3 secs

     total energy              =  -15206.47117803 Ry
     Harris-Foulkes estimate   =  -15206.47117834 Ry
     estimated scf accuracy    <       0.00004036 Ry

     iteration #141     ecut=    40.42 Ry     beta=0.20
     Davidson diagonalization with overlap
     ethr =  1.72E-10,  avg # of iterations =  1.0

     negative rho (up, down):  7.167E-02 0.000E+00

     total cpu time spent up to now is    15810.3 secs

     total energy              =  -15206.47117756 Ry
     Harris-Foulkes estimate   =  -15206.47117804 Ry
     estimated scf accuracy    <       0.00003832 Ry

     iteration #142     ecut=    40.42 Ry     beta=0.20
     Davidson diagonalization with overlap
     ethr =  1.72E-10,  avg # of iterations =  1.0

     negative rho (up, down):  7.167E-02 0.000E+00

     total cpu time spent up to now is    15908.0 secs

     total energy              =  -15206.47117738 Ry
     Harris-Foulkes estimate   =  -15206.47117756 Ry
     estimated scf accuracy    <       0.00003544 Ry

     iteration #143     ecut=    40.42 Ry     beta=0.20
     Davidson diagonalization with overlap
     ethr =  1.72E-10,  avg # of iterations =  1.0

     negative rho (up, down):  7.157E-02 0.000E+00

     total cpu time spent up to now is    16001.9 secs

     total energy              =  -15206.47116908 Ry
     Harris-Foulkes estimate   =  -15206.47117738 Ry
     estimated scf accuracy    <       0.00003431 Ry

     iteration #144     ecut=    40.42 Ry     beta=0.20
     Davidson diagonalization with overlap
     ethr =  1.72E-10,  avg # of iterations =  9.0

     negative rho (up, down):  7.161E-02 0.000E+00

     total cpu time spent up to now is    16179.5 secs

     total energy              =  -15206.47118019 Ry
     Harris-Foulkes estimate   =  -15206.47118346 Ry
     estimated scf accuracy    <       0.00006305 Ry

     iteration #145     ecut=    40.42 Ry     beta=0.20
     Davidson diagonalization with overlap
     ethr =  1.72E-10,  avg # of iterations =  9.5

     negative rho (up, down):  7.163E-02 0.000E+00

     total cpu time spent up to now is    16313.7 secs

     total energy              =  -15206.47117694 Ry
     Harris-Foulkes estimate   =  -15206.47118048 Ry
     estimated scf accuracy    <       0.00003507 Ry

     iteration #146     ecut=    40.42 Ry     beta=0.20
     Davidson diagonalization with overlap
     ethr =  1.72E-10,  avg # of iterations =  8.5

     negative rho (up, down):  7.166E-02 0.000E+00

     total cpu time spent up to now is    16461.3 secs

     total energy              =  -15206.47117669 Ry
     Harris-Foulkes estimate   =  -15206.47117757 Ry
     estimated scf accuracy    <       0.00000892 Ry

     iteration #147     ecut=    40.42 Ry     beta=0.20
     Davidson diagonalization with overlap
     c_bands:  1 eigenvalues not converged
     ethr =  1.72E-10,  avg # of iterations =  9.5

     negative rho (up, down):  7.166E-02 0.000E+00

     total cpu time spent up to now is    16573.0 secs

     total energy              =  -15206.47117680 Ry
     Harris-Foulkes estimate   =  -15206.47117680 Ry
     estimated scf accuracy    <       0.00000360 Ry

     iteration #148     ecut=    40.42 Ry     beta=0.20
     Davidson diagonalization with overlap
     c_bands:  1 eigenvalues not converged
     ethr =  1.72E-10,  avg # of iterations =  5.8

     negative rho (up, down):  7.166E-02 0.000E+00

     total cpu time spent up to now is    16672.5 secs

     total energy              =  -15206.47117679 Ry
     Harris-Foulkes estimate   =  -15206.47117681 Ry
     estimated scf accuracy    <       0.00000359 Ry

     iteration #149     ecut=    40.42 Ry     beta=0.20
     Davidson diagonalization with overlap
     ethr =  1.72E-10,  avg # of iterations =  1.2

     negative rho (up, down):  7.166E-02 0.000E+00

     total cpu time spent up to now is    16767.7 secs

     total energy              =  -15206.47117683 Ry
     Harris-Foulkes estimate   =  -15206.47117679 Ry
     estimated scf accuracy    <       0.00000345 Ry

     iteration #150     ecut=    40.42 Ry     beta=0.20
     Davidson diagonalization with overlap
     ethr =  1.72E-10,  avg # of iterations =  1.0

     negative rho (up, down):  7.167E-02 0.000E+00

     total cpu time spent up to now is    16862.2 secs

     total energy              =  -15206.47117676 Ry
     Harris-Foulkes estimate   =  -15206.47117683 Ry
     estimated scf accuracy    <       0.00000361 Ry

     iteration #151     ecut=    40.42 Ry     beta=0.20
     Davidson diagonalization with overlap
     ethr =  1.72E-10,  avg # of iterations =  1.0

     negative rho (up, down):  7.167E-02 0.000E+00

     total cpu time spent up to now is    16955.9 secs

     total energy              =  -15206.47117672 Ry
     Harris-Foulkes estimate   =  -15206.47117676 Ry
     estimated scf accuracy    <       0.00000321 Ry

     iteration #152     ecut=    40.42 Ry     beta=0.20
     Davidson diagonalization with overlap
     ethr =  1.72E-10,  avg # of iterations =  1.0

     negative rho (up, down):  7.171E-02 0.000E+00

     total cpu time spent up to now is    17049.2 secs

     total energy              =  -15206.47117603 Ry
     Harris-Foulkes estimate   =  -15206.47117672 Ry
[...]
   -47.0457 -47.0452 -46.9966 -46.9965 -46.9901 -46.9896 -46.9764 -46.9759
   -46.9404 -46.9399 -46.9209 -46.9208 -46.9205 -46.9202 -46.8795 -46.8787
   -46.8785 -46.8780 -46.8538 -46.8536 -46.8475 -46.8472 -46.8447 -46.8445
   -46.8441 -46.8439 -46.8244 -46.8239 -46.8237 -46.8236 -46.8220 -46.8215
   -46.8007 -46.8007 -46.7828 -46.7823 -46.7822 -46.7819 -46.7727 -46.7725
   -46.7720 -46.7718 -46.7683 -46.7678 -46.7649 -46.7645 -46.7352 -46.7349
   -46.7325 -46.7317 -46.7301 -46.7301 -46.7193 -46.7188 -46.6859 -46.6850
   -46.6759 -46.6756 -46.6649 -46.6647 -46.6641 -46.6639 -46.6497 -46.6493
   -46.6396 -46.6383 -46.6381 -46.6374 -46.6240 -46.6235 -46.6227 -46.6222
   -23.4712 -21.7347 -21.1861 -15.7940 -14.3963 -12.7761 -10.5975  -8.8381
    -8.0113  -7.8740  -7.5699  -6.8676  -6.7224  -6.4977  -6.4649  -6.4625
    -5.8582  -5.7253  -5.7251  -5.6406  -5.6365  -5.5885  -5.5862  -5.5024
    -5.4960  -5.4957  -5.4956  -5.4818  -5.3661  -5.3651  -5.2136  -5.2134
    -5.2133  -5.2131  -5.1391  -5.1390  -5.1388  -5.1387  -5.0113  -5.0093
    -5.0087  -5.0087  -4.9786  -4.9583  -4.9529  -4.9334  -4.9332  -4.8839
    -4.8752  -4.8744  -4.7900  -4.7898  -4.7896  -4.7891  -4.6521  -4.5820
    -4.5816  -4.5814  -4.5788  -4.4910  -4.4908  -4.4320  -4.4317  -4.2729
    -3.9916  -3.9907  -3.7506  -3.7474  -3.6357  -3.5839  -3.5827  -3.5821
    -3.5809  -3.5634  -3.5578  -3.5503  -3.5472  -3.4138  -3.4126  -3.4051
    -3.4048  -3.4020  -3.4019  -3.4006  -3.3980  -3.3445  -3.3436  -3.2495
    -3.2482  -3.1870  -3.1863  -3.1221  -3.1218  -3.1210  -3.1188  -2.7821
    -2.7820  -2.7690  -2.7686  -2.7683  -2.7680  -2.7624  -2.7582  -2.7578
    -2.7573  -2.7558  -2.7545  -2.6474  -2.6472  -2.6150  -2.6137  -2.5147
    -2.5138  -2.3882  -2.3486  -2.3485  -2.2731  -2.2729  -2.2727  -2.2723
    -2.2507  -2.2447  -2.1797  -2.1644  -1.9458  -1.9450  -1.9445  -1.9427
    -1.9168  -1.9144  -1.8332  -1.8319  -1.7142  -1.7030  -1.5284  -1.5276
    -1.5262  -1.5258  -1.5026  -1.4166  -1.4145  -1.4132  -1.4085  -1.3961
    -1.3935  -1.3882  -1.3683  -1.3487  -1.3486  -1.2809  -1.2801  -1.0838
    -1.0819  -0.8595  -0.8592  -0.8590  -0.8582  -0.8025  -0.8017  -0.8015
    -0.8008  -0.6752  -0.6747  -0.6743  -0.6740  -0.6516  -0.6504  -0.6408
    -0.6406  -0.5343  -0.5312  -0.4482  -0.4475  -0.4285  -0.4129  -0.3913
    -0.3908

          k =-0.0465-0.0268 0.0000 ( 87256 PWs)   bands (ev):

   -79.1454 -79.1447 -79.1231 -79.1227 -79.0935 -79.0931 -79.0910 -79.0900
   -79.0899 -79.0894 -79.0803 -79.0795 -79.0780 -79.0778 -79.0649 -79.0647
   -79.0642 -79.0641 -79.0589 -79.0578 -79.0577 -79.0573 -79.0529 -79.0522
   -79.0512 -79.0511 -79.0465 -79.0462 -79.0457 -79.0456 -79.0433 -79.0430
   -47.2549 -47.2548 -47.2543 -47.2540 -47.2213 -47.2210 -47.2093 -47.2092
   -47.2088 -47.2084 -47.1951 -47.1949 -47.1756 -47.1752 -47.1513 -47.1511
   -47.1278 -47.1278 -47.1275 -47.1273 -47.1014 -47.1010 -47.1010 -47.1007
   -47.0457 -47.0454 -46.9968 -46.9962 -46.9901 -46.9897 -46.9763 -46.9762
   -46.9404 -46.9401 -46.9209 -46.9206 -46.9205 -46.9203 -46.8792 -46.8787
   -46.8782 -46.8779 -46.8539 -46.8537 -46.8477 -46.8471 -46.8445 -46.8443
   -46.8442 -46.8439 -46.8246 -46.8242 -46.8238 -46.8237 -46.8223 -46.8213
   -46.8007 -46.8005 -46.7826 -46.7824 -46.7822 -46.7821 -46.7725 -46.7723
   -46.7720 -46.7718 -46.7680 -46.7678 -46.7651 -46.7645 -46.7354 -46.7349
   -46.7323 -46.7320 -46.7301 -46.7299 -46.7190 -46.7189 -46.6858 -46.6852
   -46.6761 -46.6756 -46.6647 -46.6646 -46.6644 -46.6639 -46.6499 -46.6491
   -46.6397 -46.6383 -46.6380 -46.6373 -46.6239 -46.6234 -46.6229 -46.6222
   -23.4712 -21.7347 -21.1861 -15.7940 -14.3963 -12.7761 -10.5975  -8.8381
    -8.0113  -7.8739  -7.5699  -6.8677  -6.7223  -6.4971  -6.4651  -6.4631
    -5.8583  -5.7252  -5.7251  -5.6403  -5.6367  -5.5886  -5.5862  -5.5034
    -5.4959  -5.4956  -5.4956  -5.4810  -5.3665  -5.3653  -5.2135  -5.2135
    -5.2132  -5.2129  -5.1390  -5.1389  -5.1387  -5.1384  -5.0107  -5.0089
    -5.0087  -5.0085  -4.9811  -4.9579  -4.9526  -4.9333  -4.9326  -4.8838
    -4.8751  -4.8746  -4.7899  -4.7897  -4.7895  -4.7893  -4.6526  -4.5820
    -4.5815  -4.5812  -4.5781  -4.4911  -4.4910  -4.4320  -4.4315  -4.2728
    -3.9915  -3.9907  -3.7504  -3.7479  -3.6383  -3.5833  -3.5827  -3.5826
    -3.5776  -3.5625  -3.5604  -3.5495  -3.5481  -3.4137  -3.4130  -3.4050
    -3.4048  -3.4022  -3.4019  -3.4007  -3.3982  -3.3447  -3.3424  -3.2495
    -3.2482  -3.1869  -3.1861  -3.1225  -3.1218  -3.1204  -3.1185  -2.7822
    -2.7820  -2.7690  -2.7688  -2.7683  -2.7682  -2.7629  -2.7585  -2.7577
    -2.7571  -2.7557  -2.7540  -2.6474  -2.6470  -2.6153  -2.6144  -2.5158
    -2.5145  -2.3867  -2.3487  -2.3484  -2.2732  -2.2730  -2.2727  -2.2721
    -2.2507  -2.2440  -2.1803  -2.1633  -1.9454  -1.9452  -1.9443  -1.9436
    -1.9162  -1.9149  -1.8331  -1.8323  -1.7146  -1.7030  -1.5283  -1.5279
    -1.5271  -1.5253  -1.5025  -1.4173  -1.4146  -1.4118  -1.4083  -1.3976
    -1.3939  -1.3886  -1.3666  -1.3489  -1.3487  -1.2811  -1.2805  -1.0836
    -1.0815  -0.8595  -0.8590  -0.8589  -0.8581  -0.8021  -0.8018  -0.8015
    -0.8008  -0.6755  -0.6744  -0.6741  -0.6738  -0.6517  -0.6507  -0.6409
    -0.6407  -0.5344  -0.5313  -0.4481  -0.4473  -0.4303  -0.4121  -0.3912
    -0.3908

          k =-0.0232 0.0403 0.0000 ( 87299 PWs)   bands (ev):

   -79.1481 -79.1366 -79.1359 -79.1073 -79.1063 -79.0954 -79.0915 -79.0877
   -79.0870 -79.0862 -79.0852 -79.0755 -79.0750 -79.0727 -79.0719 -79.0681
   -79.0672 -79.0603 -79.0588 -79.0573 -79.0570 -79.0560 -79.0553 -79.0506
   -79.0502 -79.0494 -79.0490 -79.0479 -79.0450 -79.0442 -79.0436 -79.0433
   -47.2723 -47.2494 -47.2492 -47.2359 -47.2356 -47.2225 -47.2070 -47.2067
   -47.2015 -47.2012 -47.1890 -47.1887 -47.1761 -47.1757 -47.1657 -47.1653
   -47.1584 -47.1355 -47.1351 -47.1274 -47.1026 -47.0915 -47.0874 -47.0405
   -47.0400 -47.0263 -47.0256 -47.0159 -47.0006 -46.9882 -46.9876 -46.9800
   -46.9797 -46.9284 -46.9079 -46.9078 -46.8998 -46.8994 -46.8915 -46.8768
   -46.8764 -46.8711 -46.8709 -46.8597 -46.8596 -46.8535 -46.8533 -46.8493
   -46.8327 -46.8322 -46.8285 -46.8282 -46.8123 -46.8108 -46.8101 -46.8028
   -46.8013 -46.8011 -46.7936 -46.7934 -46.7902 -46.7894 -46.7795 -46.7791
   -46.7789 -46.7662 -46.7660 -46.7633 -46.7534 -46.7529 -46.7514 -46.7510
   -46.7440 -46.7437 -46.7365 -46.7211 -46.7084 -46.6951 -46.6918 -46.6915
   -46.6745 -46.6731 -46.6728 -46.6723 -46.6558 -46.6550 -46.6519 -46.6509
   -46.6427 -46.6420 -46.6363 -46.6298 -46.6288 -46.6252 -46.6232 -46.6224
   -23.4712 -21.7347 -21.1861 -15.7940 -14.3963 -12.7761 -10.5975  -8.8382
    -8.0113  -7.8740  -7.5699  -6.8676  -6.7226  -6.5869  -6.4950  -6.1204
    -6.1195  -5.8581  -5.7051  -5.7049  -5.6919  -5.5466  -5.5415  -5.5408
    -5.4941  -5.3612  -5.3610  -5.3520  -5.3513  -5.2879  -5.2875  -5.2503
    -5.2495  -5.1919  -5.1848  -5.1845  -5.1638  -5.1635  -5.0663  -5.0397
    -5.0391  -5.0120  -4.9932  -4.9910  -4.9729  -4.8851  -4.8417  -4.8408
    -4.8310  -4.8303  -4.8265  -4.7949  -4.7932  -4.7868  -4.7864  -4.6547
    -4.6539  -4.6516  -4.5275  -4.3909  -4.3028  -4.2766  -4.2711  -4.2698
    -4.2666  -3.7335  -3.7323  -3.7121  -3.7101  -3.6414  -3.6124  -3.6076
    -3.6051  -3.5940  -3.5510  -3.5496  -3.5079  -3.5051  -3.5038  -3.4745
    -3.4732  -3.4594  -3.4578  -3.3629  -3.3620  -3.3347  -3.3135  -3.2883
    -3.2726  -3.2725  -3.2625  -3.1767  -3.1339  -3.0987  -3.0984  -2.9730
    -2.9722  -2.8890  -2.8638  -2.8122  -2.8110  -2.7187  -2.6913  -2.6907
    -2.5682  -2.5649  -2.4912  -2.4905  -2.4636  -2.4605  -2.4445  -2.4417
    -2.4217  -2.4133  -2.4101  -2.3811  -2.3011  -2.3008  -2.2838  -2.2834
    -2.2826  -2.2672  -2.2007  -2.1995  -2.0578  -2.0193  -2.0181  -1.8633
    -1.8623  -1.8288  -1.8278  -1.7623  -1.7580  -1.7497  -1.7057  -1.6987
    -1.5226  -1.5149  -1.4975  -1.4603  -1.4233  -1.3754  -1.3430  -1.3073
    -1.3049  -1.2644  -1.2628  -1.2325  -1.2324  -1.2168  -1.2135  -1.1666
    -1.1647  -1.0596  -1.0592  -1.0502  -0.9705  -0.8103  -0.7963  -0.7959
    -0.7258  -0.7254  -0.7103  -0.6641  -0.6609  -0.6603  -0.6476  -0.6463
    -0.6169  -0.6164  -0.5244  -0.5233  -0.4760  -0.4706  -0.4701  -0.4510
    -0.4446

          k = 0.0465-0.0000 0.0000 ( 87299 PWs)   bands (ev):

   -79.1482 -79.1365 -79.1360 -79.1071 -79.1064 -79.0953 -79.0916 -79.0873
   -79.0870 -79.0863 -79.0856 -79.0753 -79.0751 -79.0729 -79.0717 -79.0680
   -79.0673 -79.0605 -79.0587 -79.0574 -79.0570 -79.0558 -79.0552 -79.0505
   -79.0502 -79.0495 -79.0485 -79.0484 -79.0449 -79.0444 -79.0437 -79.0431
   -47.2723 -47.2494 -47.2492 -47.2359 -47.2356 -47.2225 -47.2071 -47.2067
   -47.2014 -47.2012 -47.1890 -47.1887 -47.1760 -47.1758 -47.1657 -47.1654
   -47.1584 -47.1354 -47.1351 -47.1274 -47.1026 -47.0915 -47.0874 -47.0406
   -47.0399 -47.0263 -47.0257 -47.0159 -47.0006 -46.9881 -46.9877 -46.9800
   -46.9797 -46.9284 -46.9079 -46.9077 -46.8998 -46.8994 -46.8915 -46.8770
   -46.8763 -46.8714 -46.8707 -46.8597 -46.8596 -46.8535 -46.8532 -46.8492
   -46.8325 -46.8323 -46.8286 -46.8282 -46.8123 -46.8110 -46.8099 -46.8028
   -46.8014 -46.8010 -46.7936 -46.7934 -46.7899 -46.7897 -46.7793 -46.7792
   -46.7789 -46.7662 -46.7659 -46.7633 -46.7532 -46.7530 -46.7514 -46.7510
   -46.7439 -46.7437 -46.7366 -46.7211 -46.7084 -46.6951 -46.6917 -46.6915
   -46.6746 -46.6731 -46.6727 -46.6724 -46.6561 -46.6547 -46.6515 -46.6512
   -46.6427 -46.6421 -46.6362 -46.6297 -46.6289 -46.6253 -46.6231 -46.6225
   -23.4712 -21.7347 -21.1861 -15.7940 -14.3963 -12.7761 -10.5975  -8.8381
    -8.0113  -7.8740  -7.5699  -6.8677  -6.7228  -6.5862  -6.4956  -6.1204
    -6.1194  -5.8580  -5.7051  -5.7048  -5.6919  -5.5471  -5.5414  -5.5408
    -5.4937  -5.3612  -5.3610  -5.3523  -5.3508  -5.2880  -5.2875  -5.2505
    -5.2494  -5.1919  -5.1848  -5.1846  -5.1639  -5.1635  -5.0661  -5.0400
    -5.0392  -5.0120  -4.9914  -4.9907  -4.9748  -4.8860  -4.8418  -4.8388
    -4.8311  -4.8308  -4.8265  -4.7951  -4.7938  -4.7868  -4.7860  -4.6549
    -4.6541  -4.6510  -4.5276  -4.3910  -4.3030  -4.2745  -4.2710  -4.2696
    -4.2685  -3.7332  -3.7326  -3.7109  -3.7101  -3.6441  -3.6126  -3.6091
    -3.6056  -3.5904  -3.5517  -3.5491  -3.5076  -3.5059  -3.5038  -3.4748
    -3.4719  -3.4595  -3.4581  -3.3644  -3.3614  -3.3341  -3.3132  -3.2882
    -3.2728  -3.2724  -3.2624  -3.1762  -3.1338  -3.0986  -3.0983  -2.9751
    -2.9709  -2.8891  -2.8638  -2.8120  -2.8114  -2.7186  -2.6915  -2.6910
    -2.5686  -2.5648  -2.4911  -2.4904  -2.4625  -2.4606  -2.4444  -2.4418
    -2.4208  -2.4141  -2.4101  -2.3824  -2.3011  -2.3006  -2.2843  -2.2832
    -2.2827  -2.2649  -2.2006  -2.1996  -2.0589  -2.0195  -2.0180  -1.8638
    -1.8617  -1.8296  -1.8270  -1.7626  -1.7584  -1.7472  -1.7060  -1.7001
    -1.5234  -1.5120  -1.4982  -1.4606  -1.4234  -1.3754  -1.3432  -1.3090
    -1.3032  -1.2641  -1.2631  -1.2326  -1.2323  -1.2166  -1.2137  -1.1670
    -1.1643  -1.0596  -1.0593  -1.0503  -0.9705  -0.8103  -0.7964  -0.7959
    -0.7257  -0.7256  -0.7103  -0.6647  -0.6612  -0.6598  -0.6474  -0.6460
    -0.6172  -0.6160  -0.5242  -0.5236  -0.4760  -0.4708  -0.4699  -0.4502
    -0.4454

     the Fermi energy is    -0.6427 ev

!    total energy              =  -15206.50367423 Ry
     Harris-Foulkes estimate   =  -15206.50367443 Ry
     estimated scf accuracy    <       0.00000036 Ry

     The total energy is the sum of the following terms:

     one-electron contribution =  -75701.92818298 Ry
     hartree contribution      =   37848.15570113 Ry
     xc contribution           =    -991.86652067 Ry
     ewald contribution        =   31522.63637214 Ry
     one-center paw contrib.   =   -7883.35731112 Ry
     smearing contrib. (-TS)   =      -0.14373273 Ry

     convergence has been achieved in  24 iterations

     Forces acting on atoms (Ry/au):


     negative rho (up, down):  7.005E-02 0.000E+00
     atom    1 type  1   force =     0.00002823   -0.00006312    0.01331940
     atom    2 type  1   force =     0.00009711    0.00008990   -0.01340598
     atom    3 type  1   force =     0.00004722   -0.00006176    0.01354091
     atom    4 type  1   force =    -0.00003415   -0.00003424   -0.01338082
     atom    5 type  1   force =     0.00000622   -0.00004745    0.01341387
     atom    6 type  1   force =    -0.00008043    0.00013050   -0.01327046
     atom    7 type  1   force =    -0.00009124    0.00013603    0.01345295
     atom    8 type  1   force =    -0.00001680   -0.00014582   -0.01326848
     atom    9 type  1   force =    -0.00003072    0.00000157    0.01359768
     atom   10 type  1   force =    -0.00055415   -0.00015457   -0.01494244
     atom   11 type  1   force =    -0.00006080    0.00002537    0.01345815
     atom   12 type  1   force =    -0.00053022   -0.00004347   -0.01411048
     atom   13 type  1   force =     0.00004126   -0.00013245    0.01340920
     atom   14 type  1   force =    -0.00005674    0.00008714   -0.01339379
     atom   15 type  1   force =    -0.00004510   -0.00001218    0.01335606
     atom   16 type  1   force =     0.00006495   -0.00013543   -0.01321641
     atom   17 type  1   force =    -0.00004442    0.00002306    0.01347144
     atom   18 type  1   force =     0.00031860   -0.00025220   -0.01392908
     atom   19 type  1   force =     0.00004943    0.00012203    0.01253405
     atom   20 type  1   force =    -0.00011497   -0.00030834   -0.01283102
     atom   21 type  1   force =    -0.00000795   -0.00001096    0.01355231
     atom   22 type  1   force =    -0.00010282    0.00039998   -0.01360230
     atom   23 type  1   force =     0.00015267    0.00006835    0.01342784
     atom   24 type  1   force =    -0.00014496   -0.00017302   -0.01315228
     atom   25 type  1   force =     0.00013011   -0.00010637    0.01339374
     atom   26 type  1   force =    -0.00011115    0.00028637   -0.01327928
     atom   27 type  1   force =    -0.00009112    0.00018359    0.01322187
     atom   28 type  1   force =     0.00038596   -0.00008809   -0.01352047
     atom   29 type  1   force =     0.00001992   -0.00033998    0.01392868
     atom   30 type  1   force =     0.00021532    0.00032670   -0.01358338
     atom   31 type  1   force =     0.00001718    0.00007614    0.01327356
     atom   32 type  1   force =     0.00005419   -0.00020544   -0.01300851
     atom   33 type  2   force =    -0.00015325   -0.00206936    0.00067061
     atom   34 type  2   force =     0.00044000    0.00107886    0.00024702
     atom   35 type  2   force =     0.00068453   -0.00031819   -0.00043229
     atom   36 type  3   force =    -0.00078065   -0.00149353   -0.00141241
     atom   37 type  3   force =     0.00073209   -0.00123884    0.00140578
     atom   38 type  3   force =    -0.00019088    0.00097225    0.00031907
     atom   39 type  3   force =    -0.00107779    0.00206363    0.00091178
     atom   40 type  3   force =    -0.00219385    0.00017341   -0.00101032
     atom   41 type  4   force =     0.00054188   -0.00064338    0.00095135
     atom   42 type  4   force =     0.00036928   -0.00049305    0.00054545
     atom   43 type  4   force =     0.00066154   -0.00074818    0.00068665
     atom   44 type  4   force =     0.00059789   -0.00137362    0.00095831
     atom   45 type  4   force =     0.00074038    0.00096332   -0.00138140
     atom   46 type  4   force =     0.00023332    0.00065819   -0.00083235
     atom   47 type  4   force =    -0.00005327   -0.00068780   -0.00083420
     atom   48 type  4   force =    -0.00006187    0.00351443    0.00075042

     Total force =     0.076461     Total SCF correction =     0.002201
 !ASE

     Writing output data file calc.save
     Check: negative starting charge=   -0.060199
     NEW-OLD atomic charge density approx. for the potential

     Check: negative/imaginary core charge=   -0.000001    0.000000
     Check: negative starting charge=   -0.060198

     negative rho (up, down):  7.005E-02 0.000E+00

     total cpu time spent up to now is    84409.2 secs

     per-process dynamical memory:   642.5 Mb

     Self-consistent Calculation

     iteration #  1     ecut=    40.42 Ry     beta=0.15
     Davidson diagonalization with overlap
     c_bands:  1 eigenvalues not converged
     c_bands:  2 eigenvalues not converged
     c_bands:  1 eigenvalues not converged
     c_bands:  4 eigenvalues not converged
     c_bands:  3 eigenvalues not converged
     ethr =  8.80E-11,  avg # of iterations = 16.1

     negative rho (up, down):  7.003E-02 0.000E+00

     total cpu time spent up to now is    84869.7 secs

     total energy              =  -15206.50382435 Ry
     Harris-Foulkes estimate   =  -15206.50383847 Ry
     estimated scf accuracy    <       0.00034400 Ry

     iteration #  2     ecut=    40.42 Ry     beta=0.15
     Davidson diagonalization with overlap
     ethr =  5.83E-08,  avg # of iterations =  1.0

     negative rho (up, down):  6.995E-02 0.000E+00

     total cpu time spent up to now is    85049.4 secs

     total energy              =  -15206.50377769 Ry
     Harris-Foulkes estimate   =  -15206.50382500 Ry
     estimated scf accuracy    <       0.00025061 Ry

     iteration #  3     ecut=    40.42 Ry     beta=0.15
     Davidson diagonalization with overlap
     ethr =  4.25E-08,  avg # of iterations =  2.0

     negative rho (up, down):  6.992E-02 0.000E+00

     total cpu time spent up to now is    85237.4 secs

     total energy              =  -15206.50377789 Ry
     Harris-Foulkes estimate   =  -15206.50378831 Ry
     estimated scf accuracy    <       0.00004952 Ry

     iteration #  4     ecut=    40.42 Ry     beta=0.15
     Davidson diagonalization with overlap
     ethr =  8.39E-09,  avg # of iterations =  3.0

     negative rho (up, down):  6.991E-02 0.000E+00

     total cpu time spent up to now is    85431.3 secs

     total energy              =  -15206.50377998 Ry
     Harris-Foulkes estimate   =  -15206.50378091 Ry
     estimated scf accuracy    <       0.00000591 Ry

     iteration #  5     ecut=    40.42 Ry     beta=0.15
     Davidson diagonalization with overlap
     ethr =  1.00E-09,  avg # of iterations =  5.8

     negative rho (up, down):  6.991E-02 0.000E+00

     total cpu time spent up to now is    85640.3 secs

     total energy              =  -15206.50378019 Ry
     Harris-Foulkes estimate   =  -15206.50378032 Ry
     estimated scf accuracy    <       0.00000324 Ry

     iteration #  6     ecut=    40.42 Ry     beta=0.15
     Davidson diagonalization with overlap
     ethr =  5.49E-10,  avg # of iterations =  3.4

     negative rho (up, down):  6.991E-02 0.000E+00

     total cpu time spent up to now is    85835.6 secs

     total energy              =  -15206.50378029 Ry
     Harris-Foulkes estimate   =  -15206.50378033 Ry
     estimated scf accuracy    <       0.00000144 Ry

     iteration #  7     ecut=    40.42 Ry     beta=0.15
     Davidson diagonalization with overlap
     c_bands:  2 eigenvalues not converged
     ethr =  2.44E-10,  avg # of iterations =  8.2

     negative rho (up, down):  6.991E-02 0.000E+00

     total cpu time spent up to now is    86058.2 secs

     total energy              =  -15206.50378058 Ry
     Harris-Foulkes estimate   =  -15206.50378048 Ry
     estimated scf accuracy    <       0.00000139 Ry

     iteration #  8     ecut=    40.42 Ry     beta=0.15
     Davidson diagonalization with overlap
     ethr =  2.35E-10,  avg # of iterations =  1.5

     negative rho (up, down):  6.991E-02 0.000E+00

     total cpu time spent up to now is    86245.5 secs

     total energy              =  -15206.50378052 Ry
     Harris-Foulkes estimate   =  -15206.50378059 Ry
     estimated scf accuracy    <       0.00000123 Ry

     iteration #  9     ecut=    40.42 Ry     beta=0.15
     Davidson diagonalization with overlap
     c_bands:  2 eigenvalues not converged
     c_bands:  1 eigenvalues not converged
     c_bands:  2 eigenvalues not converged
     c_bands:  1 eigenvalues not converged
     c_bands:  2 eigenvalues not converged
