  python dir          : /gpfs/pace1/project/chbe-medford/medford-share/gits/frozen/ben_espresso_8_24_2017/espresso
  espresso dir        : /nv/hp22/amedford6/medford-shared/builds/espresso/5.1.r11289-pybeef/intel-16.0+mvapich2-2.2+mkl-11.3/espresso-5.1.r11289-pybeef/bin
  pseudo dir          : /gpfs/pace1/project/chbe-medford/medford-share/data/pseudos/SSSP_eff_PBE
  ase-espresso py git : GITVERSION



     Program PWSCF v.5.1rc2 starts on  9Feb2019 at 22:48:53 

     This program is part of the open-source Quantum ESPRESSO suite
     for quantum simulation of materials; please cite
         "P. Giannozzi et al., J. Phys.:Condens. Matter 21 395502 (2009);
          URL http://www.quantum-espresso.org", 
     in publications or presentations arising from this work. More details at
     http://www.quantum-espresso.org/quote

     Parallel version (MPI), running on    12 processors
     R & G space division:  proc/nbgrp/npool/nimage =      12
     Reading input from pw.inp
     Message from routine read_cards :
     DEPRECATED: no units specified in CELL_PARAMETERS card

     Current dimensions of program PWSCF are:
     Max number of different atomic species (ntypx) = 10
     Max number of k-points (npk) =  40000
     Max angular momentum in pseudopotentials (lmaxx) =  3

     IMPORTANT: XC functional enforced from input :
     Exchange-correlation      = PBE ( 1  4  3  4 0)
     Any further DFT definition will be discarded
     Please, verify this is what you really want


     Subspace diagonalization in iterative solution of the eigenvalue problem:
     a serial algorithm will be used

 
     Parallelization info
     --------------------
     sticks:   dense  smooth     PW     G-vecs:    dense   smooth      PW
     Min         835     410    107               183380    62676    8487
     Max         837     411    108               183387    62715    8502
     Sum       10033    4927   1285              2200589   752313  101867
 


     bravais-lattice index     =            0
     lattice parameter (alat)  =       1.8897  a.u.
     unit-cell volume          =   21663.5353 (a.u.)^3
     number of atoms/cell      =           47
     number of atomic types    =            4
     number of electrons       =       562.00
     number of Kohn-Sham states=          291
     kinetic-energy cutoff     =      40.4243  Ry
     charge density cutoff     =     330.7439  Ry
     convergence threshold     =      7.3E-07
     mixing beta               =       0.2000
     number of iterations used =            8  local-TF  mixing
     Exchange-correlation      = PBE ( 1  4  3  4 0)
     nstep                     =           50


     celldm(1)=   1.889726  celldm(2)=   0.000000  celldm(3)=   0.000000
     celldm(4)=   0.000000  celldm(5)=   0.000000  celldm(6)=   0.000000

     crystal axes: (cart. coord. in units of alat)
               a(1) = (  11.099314   0.000000   0.000000 )  
               a(2) = (  -5.549657   9.612288   0.000000 )  
               a(3) = (   0.000000   0.000000  30.089145 )  

     reciprocal axes: (cart. coord. in units 2 pi/alat)
               b(1) = (  0.090096  0.052017  0.000000 )  
               b(2) = (  0.000000  0.104034  0.000000 )  
               b(3) = (  0.000000  0.000000  0.033235 )  


     PseudoPot. # 1 for Pt read from file:
     /gpfs/pace1/project/chbe-medford/medford-share/data/pseudos/SSSP_eff_PBE/Pt.UPF
     MD5 check sum: f09d6de1a584b5a045c4fc126da2d0c4
     Pseudo is Ultrasoft + core correction, Zval = 16.0
     Generated by new atomic code, or converted to UPF format
     Using radial grid of  985 points,  6 beta functions with: 
                l(1) =   0
                l(2) =   0
                l(3) =   1
                l(4) =   1
                l(5) =   2
                l(6) =   2
     Q(r) pseudized with  8 coefficients,  rinner =    1.300   1.300   1.300
                                                       1.300   1.300

     PseudoPot. # 2 for O  read from file:
     /gpfs/pace1/project/chbe-medford/medford-share/data/pseudos/SSSP_eff_PBE/O.UPF
     MD5 check sum: 734c27235a0248c51dbae37a1fbe46ec
     Pseudo is Ultrasoft + core correction, Zval =  6.0
     Generated by new atomic code, or converted to UPF format
     Using radial grid of  737 points,  5 beta functions with: 
                l(1) =   0
                l(2) =   0
                l(3) =   1
                l(4) =   1
                l(5) =   2
     Q(r) pseudized with  8 coefficients,  rinner =    0.900   0.900   0.900
                                                       0.900   0.900

     PseudoPot. # 3 for C  read from file:
     /gpfs/pace1/project/chbe-medford/medford-share/data/pseudos/SSSP_eff_PBE/C.UPF
     MD5 check sum: d1aef80898a10debaa0f26306b886e00
     Pseudo is Ultrasoft + core correction, Zval =  4.0
     Generated by new atomic code, or converted to UPF format
     Using radial grid of  721 points,  4 beta functions with: 
                l(1) =   0
                l(2) =   0
                l(3) =   1
                l(4) =   1
     Q(r) pseudized with  8 coefficients,  rinner =    1.100   1.100   1.100


     PseudoPot. # 4 for  H read from file:
     /gpfs/pace1/project/chbe-medford/medford-share/data/pseudos/SSSP_eff_PBE/H.UPF
     MD5 check sum: 36633979392af7100e6f6632747262d3
     Pseudo is Ultrasoft, Zval =  1.0
     Generated using "atomic" code by A. Dal Corso  v.5.0.99 svn rev. 10869
     Using radial grid of  929 points,  2 beta functions with: 
                l(1) =   0
                l(2) =   0
     Q(r) pseudized with 0 coefficients 


     atomic species   valence    mass     pseudopotential
        Pt1           16.00   195.08000     Pt( 1.00)
        O1             6.00    15.99940     O ( 1.00)
        C1             4.00    12.01100     C ( 1.00)
        H1             1.00     1.00794      H( 1.00)

     No symmetry found



   Cartesian axes

     site n.     atom                  positions (alat units)
         1           Pt1 tau(   1) = (   0.0000000   0.0000000  10.0000000  )
         2           Pt1 tau(   2) = (   1.3874142   0.8010240  12.2656379  )
         3           Pt1 tau(   3) = (  -1.3874142   2.4030719  10.0000000  )
         4           Pt1 tau(   4) = (   0.0000000   3.2040959  12.2656379  )
         5           Pt1 tau(   5) = (  -2.7748284   4.8061438  10.0000000  )
         6           Pt1 tau(   6) = (  -1.3874142   5.6071678  12.2656379  )
         7           Pt1 tau(   7) = (  -4.1622426   7.2092157  10.0000000  )
         8           Pt1 tau(   8) = (  -2.7748284   8.0102397  12.2656379  )
         9           Pt1 tau(   9) = (   2.7748284   0.0000000  10.0000000  )
        10           Pt1 tau(  10) = (   4.1622426   0.8010240  12.2656379  )
        11           Pt1 tau(  11) = (   1.3874142   2.4030719  10.0000000  )
        12           Pt1 tau(  12) = (   2.7748284   3.2040959  12.2656379  )
        13           Pt1 tau(  13) = (   0.0000000   4.8061438  10.0000000  )
        14           Pt1 tau(  14) = (   1.3874142   5.6071678  12.2656379  )
        15           Pt1 tau(  15) = (  -1.3874142   7.2092157  10.0000000  )
        16           Pt1 tau(  16) = (   0.0000000   8.0102397  12.2656379  )
        17           Pt1 tau(  17) = (   5.5496569   0.0000000  10.0000000  )
        18           Pt1 tau(  18) = (   6.9370711   0.8010240  12.2656379  )
        19           Pt1 tau(  19) = (   4.1622426   2.4030719  10.0000000  )
        20           Pt1 tau(  20) = (   5.5496569   3.2040959  12.2656379  )
        21           Pt1 tau(  21) = (   2.7748284   4.8061438  10.0000000  )
        22           Pt1 tau(  22) = (   4.1622426   5.6071678  12.2656379  )
        23           Pt1 tau(  23) = (   1.3874142   7.2092157  10.0000000  )
        24           Pt1 tau(  24) = (   2.7748284   8.0102397  12.2656379  )
        25           Pt1 tau(  25) = (   8.3244853   0.0000000  10.0000000  )
        26           Pt1 tau(  26) = (   9.7118995   0.8010240  12.2656379  )
        27           Pt1 tau(  27) = (   6.9370711   2.4030719  10.0000000  )
        28           Pt1 tau(  28) = (   8.3244853   3.2040959  12.2656379  )
        29           Pt1 tau(  29) = (   5.5496569   4.8061438  10.0000000  )
        30           Pt1 tau(  30) = (   6.9370711   5.6071678  12.2656379  )
        31           Pt1 tau(  31) = (   4.1622426   7.2092157  10.0000000  )
        32           Pt1 tau(  32) = (   5.5496569   8.0102397  12.2656379  )
        33           O1  tau(  33) = (   1.3870000   5.6070000  14.7656379  )
        34           O1  tau(  34) = (   3.4000351   6.8865000  18.3409170  )
        35           O1  tau(  35) = (   0.5662300   5.2541000  16.8578225  )
        36           O1  tau(  36) = (   3.4662155   5.4399000  20.0891449  )
        37           C1  tau(  37) = (   2.9556743   4.9901000  16.4044615  )
        38           C1  tau(  38) = (   3.1232348   4.6146000  17.8502848  )
        39           C1  tau(  39) = (   1.5074576   5.2807000  16.0790766  )
        40           C1  tau(  40) = (   3.3450857   5.6516000  18.8921418  )
        41           C1  tau(  41) = (   3.0511491   3.3418000  18.2690287  )
        42           H1  tau(  42) = (   3.5692465   5.8583000  16.1433998  )
        43           H1  tau(  43) = (   3.2797627   4.1590000  15.7653992  )
        44           H1  tau(  44) = (   2.8770862   2.5352000  17.5635430  )
        45           H1  tau(  45) = (   3.1595197   3.0596000  19.3109320  )
        46           H1  tau(  46) = (   0.4585546   5.8107000  14.5235234  )
        47           H1  tau(  47) = (   3.5469563   7.5837000  19.0151921  )

     number of k points=     4  Fermi-Dirac smearing, width (Ry)=  0.0073
                       cart. coord. in units 2pi/alat
        k(    1) = (   0.0000000   0.0000000   0.0000000), wk =   0.5000000
        k(    2) = (   0.0000000  -0.0520168   0.0000000), wk =   0.5000000
        k(    3) = (   0.0450478  -0.0260084   0.0000000), wk =   0.5000000
        k(    4) = (  -0.0450478  -0.0260084   0.0000000), wk =   0.5000000

     Dense  grid:  2200589 G-vectors     FFT dimensions: ( 125, 125, 360)

     Smooth grid:   752313 G-vectors     FFT dimensions: (  90,  90, 240)

     Largest allocated arrays     est. size (Mb)     dimensions
        Kohn-Sham Wavefunctions        34.99 Mb     (    7879,  291)
        NL pseudopotentials            81.75 Mb     (    7879,  680)
        Each V/rho on FFT grid          7.15 Mb     (  468750)
        Each G-vector array             1.40 Mb     (  183381)
        G-vector shells                 0.43 Mb     (   57008)
     Largest temporary arrays     est. size (Mb)     dimensions
        Auxiliary wavefunctions       139.94 Mb     (    7879, 1164)
        Each subspace H/S matrix       20.67 Mb     (    1164, 1164)
        Each <psi_i|beta_j> matrix      3.02 Mb     (     680,  291)
        Arrays for rho mixing          57.22 Mb     (  468750,    8)

     Initial potential from superposition of free atoms
     Check: negative starting charge=   -5.894144

     starting charge  545.99937, renormalised to  562.00000

     negative rho (up, down):  6.067E+00 0.000E+00
     Starting wfc are  426 randomized atomic wfcs

     total cpu time spent up to now is       71.1 secs

     per-process dynamical memory:   408.6 Mb

     Self-consistent Calculation

     iteration #  1     ecut=    40.42 Ry     beta=0.20
     Davidson diagonalization with overlap
     ethr =  1.00E-02,  avg # of iterations =  2.0

     negative rho (up, down):  5.983E+00 0.000E+00

     total cpu time spent up to now is      183.6 secs

     total energy              =   -6940.73014763 Ry
     Harris-Foulkes estimate   =   -6945.70733487 Ry
     estimated scf accuracy    <      95.95552284 Ry

     iteration #  2     ecut=    40.42 Ry     beta=0.20
     Davidson diagonalization with overlap
     ethr =  1.00E-02,  avg # of iterations =  1.0

     negative rho (up, down):  5.863E+00 0.000E+00

     total cpu time spent up to now is      277.0 secs

     total energy              =   -6927.94639105 Ry
     Harris-Foulkes estimate   =   -6941.10880335 Ry
     estimated scf accuracy    <      66.12399451 Ry

     iteration #  3     ecut=    40.42 Ry     beta=0.20
     Davidson diagonalization with overlap
     ethr =  1.00E-02,  avg # of iterations =  4.8

     negative rho (up, down):  5.931E+00 0.000E+00

     total cpu time spent up to now is      389.3 secs

     total energy              =   -6934.80787210 Ry
     Harris-Foulkes estimate   =   -6935.70230690 Ry
     estimated scf accuracy    <       9.18007888 Ry

     iteration #  4     ecut=    40.42 Ry     beta=0.20
     Davidson diagonalization with overlap
     ethr =  1.63E-03,  avg # of iterations =  3.0

     negative rho (up, down):  6.005E+00 0.000E+00

     total cpu time spent up to now is      487.3 secs

     total energy              =   -6934.57771913 Ry
     Harris-Foulkes estimate   =   -6935.23327215 Ry
     estimated scf accuracy    <       4.12999615 Ry

     iteration #  5     ecut=    40.42 Ry     beta=0.20
     Davidson diagonalization with overlap
     ethr =  7.35E-04,  avg # of iterations =  5.8

     negative rho (up, down):  6.014E+00 0.000E+00

     total cpu time spent up to now is      593.1 secs

     total energy              =   -6934.45958260 Ry
     Harris-Foulkes estimate   =   -6935.05733663 Ry
     estimated scf accuracy    <       4.40371620 Ry

     iteration #  6     ecut=    40.42 Ry     beta=0.20
     Davidson diagonalization with overlap
     ethr =  7.35E-04,  avg # of iterations =  2.5

     negative rho (up, down):  6.104E+00 0.000E+00

     total cpu time spent up to now is      688.8 secs

     total energy              =   -6934.64933819 Ry
     Harris-Foulkes estimate   =   -6934.62596390 Ry
     estimated scf accuracy    <       2.18324955 Ry

     iteration #  7     ecut=    40.42 Ry     beta=0.20
     Davidson diagonalization with overlap
     ethr =  3.88E-04,  avg # of iterations =  3.0

     negative rho (up, down):  6.103E+00 0.000E+00

     total cpu time spent up to now is      786.4 secs

     total energy              =   -6934.87246718 Ry
     Harris-Foulkes estimate   =   -6934.86430793 Ry
     estimated scf accuracy    <      12.71326103 Ry

     iteration #  8     ecut=    40.42 Ry     beta=0.20
     Davidson diagonalization with overlap
     ethr =  3.88E-04,  avg # of iterations =  1.0

     negative rho (up, down):  6.101E+00 0.000E+00

     total cpu time spent up to now is      879.8 secs

     total energy              =   -6934.91217713 Ry
     Harris-Foulkes estimate   =   -6934.87956752 Ry
     estimated scf accuracy    <      13.35474709 Ry

     iteration #  9     ecut=    40.42 Ry     beta=0.20
     Davidson diagonalization with overlap
     ethr =  3.88E-04,  avg # of iterations =  1.0

     negative rho (up, down):  6.092E+00 0.000E+00

     total cpu time spent up to now is      974.1 secs

     total energy              =   -6935.01681428 Ry
     Harris-Foulkes estimate   =   -6934.91550632 Ry
     estimated scf accuracy    <      14.02832712 Ry

     iteration # 10     ecut=    40.42 Ry     beta=0.20
     Davidson diagonalization with overlap
     ethr =  3.88E-04,  avg # of iterations =  1.0

     negative rho (up, down):  6.069E+00 0.000E+00

     total cpu time spent up to now is     1067.7 secs

     total energy              =   -6934.44607105 Ry
     Harris-Foulkes estimate   =   -6935.02304617 Ry
     estimated scf accuracy    <      15.36313424 Ry

     iteration # 11     ecut=    40.42 Ry     beta=0.20
     Davidson diagonalization with overlap
     ethr =  3.88E-04,  avg # of iterations =  3.0

     negative rho (up, down):  6.110E+00 0.000E+00

     total cpu time spent up to now is     1165.5 secs

     total energy              =   -6934.49752861 Ry
     Harris-Foulkes estimate   =   -6934.59822726 Ry
     estimated scf accuracy    <       2.00440926 Ry

     iteration # 12     ecut=    40.42 Ry     beta=0.20
     Davidson diagonalization with overlap
     ethr =  3.57E-04,  avg # of iterations =  1.0

     negative rho (up, down):  6.197E+00 0.000E+00

     total cpu time spent up to now is     1257.8 secs

     total energy              =   -6934.56119202 Ry
     Harris-Foulkes estimate   =   -6934.56785212 Ry
     estimated scf accuracy    <       0.39656787 Ry

     iteration # 13     ecut=    40.42 Ry     beta=0.20
     Davidson diagonalization with overlap
     ethr =  7.06E-05,  avg # of iterations =  6.8

     negative rho (up, down):  6.165E+00 0.000E+00

     total cpu time spent up to now is     1368.9 secs

     total energy              =   -6934.53043715 Ry
     Harris-Foulkes estimate   =   -6934.66246550 Ry
     estimated scf accuracy    <       1.06898844 Ry

     iteration # 14     ecut=    40.42 Ry     beta=0.20
     Davidson diagonalization with overlap
     ethr =  7.06E-05,  avg # of iterations =  4.0

     negative rho (up, down):  6.139E+00 0.000E+00

     total cpu time spent up to now is     1467.3 secs

     total energy              =   -6934.52784007 Ry
     Harris-Foulkes estimate   =   -6934.56325195 Ry
     estimated scf accuracy    <       0.28693109 Ry

     iteration # 15     ecut=    40.42 Ry     beta=0.20
     Davidson diagonalization with overlap
     ethr =  5.11E-05,  avg # of iterations =  5.8

     negative rho (up, down):  6.100E+00 0.000E+00

     total cpu time spent up to now is     1569.5 secs

     total energy              =   -6934.49910840 Ry
     Harris-Foulkes estimate   =   -6934.53473077 Ry
     estimated scf accuracy    <       0.17615258 Ry

     iteration # 16     ecut=    40.42 Ry     beta=0.20
     Davidson diagonalization with overlap
     ethr =  3.13E-05,  avg # of iterations =  4.0

     negative rho (up, down):  6.041E+00 0.000E+00

     total cpu time spent up to now is     1666.4 secs

     total energy              =   -6934.48056995 Ry
     Harris-Foulkes estimate   =   -6934.50529449 Ry
     estimated scf accuracy    <       0.14640158 Ry

     iteration # 17     ecut=    40.42 Ry     beta=0.20
     Davidson diagonalization with overlap
     ethr =  2.61E-05,  avg # of iterations =  4.5

     negative rho (up, down):  6.045E+00 0.000E+00

     total cpu time spent up to now is     1766.3 secs

     total energy              =   -6934.42363717 Ry
     Harris-Foulkes estimate   =   -6934.50312871 Ry
     estimated scf accuracy    <       0.98441506 Ry

     iteration # 18     ecut=    40.42 Ry     beta=0.20
     Davidson diagonalization with overlap
     ethr =  2.61E-05,  avg # of iterations =  4.0

     negative rho (up, down):  5.976E+00 0.000E+00

     total cpu time spent up to now is     1868.4 secs

     total energy              =   -6934.46797689 Ry
     Harris-Foulkes estimate   =   -6934.48861256 Ry
     estimated scf accuracy    <       0.08822439 Ry

     iteration # 19     ecut=    40.42 Ry     beta=0.20
     Davidson diagonalization with overlap
     ethr =  1.57E-05,  avg # of iterations =  3.8

     negative rho (up, down):  5.883E+00 0.000E+00

     total cpu time spent up to now is     1968.2 secs

     total energy              =   -6934.46086535 Ry
     Harris-Foulkes estimate   =   -6934.47319887 Ry
     estimated scf accuracy    <       0.07011760 Ry

     iteration # 20     ecut=    40.42 Ry     beta=0.20
     Davidson diagonalization with overlap
     ethr =  1.25E-05,  avg # of iterations =  3.5

     negative rho (up, down):  5.807E+00 0.000E+00

     total cpu time spent up to now is     2068.0 secs

     total energy              =   -6934.45786242 Ry
     Harris-Foulkes estimate   =   -6934.46242150 Ry
     estimated scf accuracy    <       0.04903195 Ry

     iteration # 21     ecut=    40.42 Ry     beta=0.20
     Davidson diagonalization with overlap
     ethr =  8.72E-06,  avg # of iterations =  5.0

     negative rho (up, down):  5.773E+00 0.000E+00

     total cpu time spent up to now is     2169.2 secs

     total energy              =   -6934.44923784 Ry
     Harris-Foulkes estimate   =   -6934.46569247 Ry
     estimated scf accuracy    <       0.76760522 Ry

     iteration # 22     ecut=    40.42 Ry     beta=0.20
     Davidson diagonalization with overlap
     ethr =  8.72E-06,  avg # of iterations =  2.0

     negative rho (up, down):  5.750E+00 0.000E+00

     total cpu time spent up to now is     2263.1 secs

     total energy              =   -6934.45165731 Ry
     Harris-Foulkes estimate   =   -6934.45448184 Ry
     estimated scf accuracy    <       0.10139909 Ry

     iteration # 23     ecut=    40.42 Ry     beta=0.20
     Davidson diagonalization with overlap
     ethr =  8.72E-06,  avg # of iterations =  1.0

     negative rho (up, down):  5.700E+00 0.000E+00

     total cpu time spent up to now is     2356.2 secs

     total energy              =   -6934.44894783 Ry
     Harris-Foulkes estimate   =   -6934.45192055 Ry
     estimated scf accuracy    <       0.06034269 Ry

     iteration # 24     ecut=    40.42 Ry     beta=0.20
     Davidson diagonalization with overlap
     ethr =  8.72E-06,  avg # of iterations =  1.2

     negative rho (up, down):  5.683E+00 0.000E+00

     total cpu time spent up to now is     2450.8 secs

     total energy              =   -6934.44829476 Ry
     Harris-Foulkes estimate   =   -6934.44944494 Ry
     estimated scf accuracy    <       0.03602633 Ry

     iteration # 25     ecut=    40.42 Ry     beta=0.20
     Davidson diagonalization with overlap
     ethr =  6.41E-06,  avg # of iterations =  1.0

     negative rho (up, down):  5.677E+00 0.000E+00

     total cpu time spent up to now is     2544.7 secs

     total energy              =   -6934.44763457 Ry
     Harris-Foulkes estimate   =   -6934.44859511 Ry
     estimated scf accuracy    <       0.02127273 Ry

     iteration # 26     ecut=    40.42 Ry     beta=0.20
     Davidson diagonalization with overlap
     ethr =  3.79E-06,  avg # of iterations =  1.0

     negative rho (up, down):  5.667E+00 0.000E+00

     total cpu time spent up to now is     2639.3 secs

     total energy              =   -6934.44676531 Ry
     Harris-Foulkes estimate   =   -6934.44778975 Ry
     estimated scf accuracy    <       0.01191388 Ry

     iteration # 27     ecut=    40.42 Ry     beta=0.20
     Davidson diagonalization with overlap
     c_bands:  1 eigenvalues not converged
     ethr =  2.12E-06,  avg # of iterations =  7.2

     negative rho (up, down):  5.660E+00 0.000E+00

     total cpu time spent up to now is     2747.3 secs

     total energy              =   -6934.44681062 Ry
     Harris-Foulkes estimate   =   -6934.44698793 Ry
     estimated scf accuracy    <       0.00563238 Ry

     iteration # 28     ecut=    40.42 Ry     beta=0.20
     Davidson diagonalization with overlap
     ethr =  1.00E-06,  avg # of iterations =  1.8

     negative rho (up, down):  5.650E+00 0.000E+00

     total cpu time spent up to now is     2844.5 secs

     total energy              =   -6934.44650012 Ry
     Harris-Foulkes estimate   =   -6934.44684474 Ry
     estimated scf accuracy    <       0.00559145 Ry

     iteration # 29     ecut=    40.42 Ry     beta=0.20
     Davidson diagonalization with overlap
     ethr =  9.95E-07,  avg # of iterations =  1.8

     negative rho (up, down):  5.650E+00 0.000E+00

     total cpu time spent up to now is     2941.1 secs

     total energy              =   -6934.44639513 Ry
     Harris-Foulkes estimate   =   -6934.44654472 Ry
     estimated scf accuracy    <       0.00446971 Ry

     iteration # 30     ecut=    40.42 Ry     beta=0.20
     Davidson diagonalization with overlap
     ethr =  7.95E-07,  avg # of iterations =  1.0

     negative rho (up, down):  5.650E+00 0.000E+00

     total cpu time spent up to now is     3038.4 secs

     total energy              =   -6934.44626455 Ry
     Harris-Foulkes estimate   =   -6934.44640913 Ry
     estimated scf accuracy    <       0.00367668 Ry

     iteration # 31     ecut=    40.42 Ry     beta=0.20
     Davidson diagonalization with overlap
     ethr =  6.54E-07,  avg # of iterations =  1.0

     negative rho (up, down):  5.668E+00 0.000E+00

     total cpu time spent up to now is     3134.3 secs

     total energy              =   -6934.44612257 Ry
     Harris-Foulkes estimate   =   -6934.44628124 Ry
     estimated scf accuracy    <       0.00289013 Ry

     iteration # 32     ecut=    40.42 Ry     beta=0.20
     Davidson diagonalization with overlap
     c_bands:  1 eigenvalues not converged
     ethr =  5.14E-07,  avg # of iterations = 10.2

     negative rho (up, down):  5.658E+00 0.000E+00

     total cpu time spent up to now is     3247.1 secs

     total energy              =   -6934.44625941 Ry
     Harris-Foulkes estimate   =   -6934.44624492 Ry
     estimated scf accuracy    <       0.00209008 Ry

     iteration # 33     ecut=    40.42 Ry     beta=0.20
     Davidson diagonalization with overlap
     ethr =  3.72E-07,  avg # of iterations =  3.5

     negative rho (up, down):  5.653E+00 0.000E+00

     total cpu time spent up to now is     3348.2 secs

     total energy              =   -6934.44643877 Ry
     Harris-Foulkes estimate   =   -6934.44627270 Ry
     estimated scf accuracy    <       0.00268495 Ry

     iteration # 34     ecut=    40.42 Ry     beta=0.20
     Davidson diagonalization with overlap
     ethr =  3.72E-07,  avg # of iterations =  3.0

     negative rho (up, down):  5.653E+00 0.000E+00

     total cpu time spent up to now is     3446.1 secs

     total energy              =   -6934.44584108 Ry
     Harris-Foulkes estimate   =   -6934.44647064 Ry
     estimated scf accuracy    <       0.00401995 Ry

     iteration # 35     ecut=    40.42 Ry     beta=0.20
     Davidson diagonalization with overlap
     ethr =  3.72E-07,  avg # of iterations =  3.2

     negative rho (up, down):  5.651E+00 0.000E+00

     total cpu time spent up to now is     3546.1 secs

     total energy              =   -6934.44577656 Ry
     Harris-Foulkes estimate   =   -6934.44596363 Ry
     estimated scf accuracy    <       0.00172231 Ry

     iteration # 36     ecut=    40.42 Ry     beta=0.20
     Davidson diagonalization with overlap
     ethr =  3.06E-07,  avg # of iterations =  2.0

     negative rho (up, down):  5.647E+00 0.000E+00

     total cpu time spent up to now is     3643.5 secs

     total energy              =   -6934.44556206 Ry
     Harris-Foulkes estimate   =   -6934.44579115 Ry
     estimated scf accuracy    <       0.00120768 Ry

     iteration # 37     ecut=    40.42 Ry     beta=0.20
     Davidson diagonalization with overlap
     ethr =  2.15E-07,  avg # of iterations =  3.0

     negative rho (up, down):  5.643E+00 0.000E+00

     total cpu time spent up to now is     3743.8 secs

     total energy              =   -6934.44551720 Ry
     Harris-Foulkes estimate   =   -6934.44558768 Ry
     estimated scf accuracy    <       0.00076142 Ry

     iteration # 38     ecut=    40.42 Ry     beta=0.20
     Davidson diagonalization with overlap
     ethr =  1.35E-07,  avg # of iterations =  3.0

     negative rho (up, down):  5.641E+00 0.000E+00

     total cpu time spent up to now is     3848.7 secs

     total energy              =   -6934.44540387 Ry
     Harris-Foulkes estimate   =   -6934.44552616 Ry
     estimated scf accuracy    <       0.00063004 Ry

     iteration # 39     ecut=    40.42 Ry     beta=0.20
     Davidson diagonalization with overlap
     ethr =  1.12E-07,  avg # of iterations =  5.8

     negative rho (up, down):  5.641E+00 0.000E+00

     total cpu time spent up to now is     3954.3 secs

     total energy              =   -6934.44541245 Ry
     Harris-Foulkes estimate   =   -6934.44543000 Ry
     estimated scf accuracy    <       0.00037307 Ry

     iteration # 40     ecut=    40.42 Ry     beta=0.20
     Davidson diagonalization with overlap
     ethr =  6.64E-08,  avg # of iterations =  1.0

     negative rho (up, down):  5.641E+00 0.000E+00

     total cpu time spent up to now is     4050.8 secs

     total energy              =   -6934.44540546 Ry
     Harris-Foulkes estimate   =   -6934.44541412 Ry
     estimated scf accuracy    <       0.00035122 Ry

     iteration # 41     ecut=    40.42 Ry     beta=0.20
     Davidson diagonalization with overlap
     ethr =  6.25E-08,  avg # of iterations =  1.0

     negative rho (up, down):  5.642E+00 0.000E+00

     total cpu time spent up to now is     4147.0 secs

     total energy              =   -6934.44541821 Ry
     Harris-Foulkes estimate   =   -6934.44540636 Ry
     estimated scf accuracy    <       0.00033258 Ry

     iteration # 42     ecut=    40.42 Ry     beta=0.20
     Davidson diagonalization with overlap
     ethr =  5.92E-08,  avg # of iterations =  1.0

     negative rho (up, down):  5.641E+00 0.000E+00

     total cpu time spent up to now is     4245.9 secs

     total energy              =   -6934.44540427 Ry
     Harris-Foulkes estimate   =   -6934.44541948 Ry
     estimated scf accuracy    <       0.00030764 Ry

     iteration # 43     ecut=    40.42 Ry     beta=0.20
     Davidson diagonalization with overlap
     ethr =  5.47E-08,  avg # of iterations =  2.0

     negative rho (up, down):  5.640E+00 0.000E+00

     total cpu time spent up to now is     4344.8 secs

     total energy              =   -6934.44537345 Ry
     Harris-Foulkes estimate   =   -6934.44540614 Ry
     estimated scf accuracy    <       0.00027901 Ry

     iteration # 44     ecut=    40.42 Ry     beta=0.20
     Davidson diagonalization with overlap
     ethr =  4.96E-08,  avg # of iterations =  2.0

     negative rho (up, down):  5.642E+00 0.000E+00

     total cpu time spent up to now is     4440.6 secs

     total energy              =   -6934.44534381 Ry
     Harris-Foulkes estimate   =   -6934.44537593 Ry
     estimated scf accuracy    <       0.00022332 Ry

     iteration # 45     ecut=    40.42 Ry     beta=0.20
     Davidson diagonalization with overlap
     ethr =  3.97E-08,  avg # of iterations =  3.0

     negative rho (up, down):  5.643E+00 0.000E+00

     total cpu time spent up to now is     4539.8 secs

     total energy              =   -6934.44534225 Ry
     Harris-Foulkes estimate   =   -6934.44535533 Ry
     estimated scf accuracy    <       0.00010077 Ry

     iteration # 46     ecut=    40.42 Ry     beta=0.20
     Davidson diagonalization with overlap
     c_bands:  1 eigenvalues not converged
     c_bands:  2 eigenvalues not converged
     ethr =  1.79E-08,  avg # of iterations = 11.2

     negative rho (up, down):  5.643E+00 0.000E+00

     total cpu time spent up to now is     4653.0 secs

     total energy              =   -6934.44534571 Ry
     Harris-Foulkes estimate   =   -6934.44534819 Ry
     estimated scf accuracy    <       0.00009589 Ry

     iteration # 47     ecut=    40.42 Ry     beta=0.20
     Davidson diagonalization with overlap
     ethr =  1.71E-08,  avg # of iterations =  1.8

     negative rho (up, down):  5.643E+00 0.000E+00

     total cpu time spent up to now is     4751.8 secs

     total energy              =   -6934.44533001 Ry
     Harris-Foulkes estimate   =   -6934.44534615 Ry
     estimated scf accuracy    <       0.00008223 Ry

     iteration # 48     ecut=    40.42 Ry     beta=0.20
     Davidson diagonalization with overlap
     ethr =  1.46E-08,  avg # of iterations =  7.8

     negative rho (up, down):  5.643E+00 0.000E+00

     total cpu time spent up to now is     4863.4 secs

     total energy              =   -6934.44533884 Ry
     Harris-Foulkes estimate   =   -6934.44534505 Ry
     estimated scf accuracy    <       0.00015988 Ry

     iteration # 49     ecut=    40.42 Ry     beta=0.20
     Davidson diagonalization with overlap
     ethr =  1.46E-08,  avg # of iterations =  1.5

     negative rho (up, down):  5.643E+00 0.000E+00

     total cpu time spent up to now is     4960.3 secs

     total energy              =   -6934.44533847 Ry
     Harris-Foulkes estimate   =   -6934.44533977 Ry
     estimated scf accuracy    <       0.00012299 Ry

     iteration # 50     ecut=    40.42 Ry     beta=0.20
     Davidson diagonalization with overlap
     ethr =  1.46E-08,  avg # of iterations =  1.0

     negative rho (up, down):  5.643E+00 0.000E+00

     total cpu time spent up to now is     5057.5 secs

     total energy              =   -6934.44532270 Ry
     Harris-Foulkes estimate   =   -6934.44533864 Ry
     estimated scf accuracy    <       0.00011220 Ry

     iteration # 51     ecut=    40.42 Ry     beta=0.20
     Davidson diagonalization with overlap
     ethr =  1.46E-08,  avg # of iterations = 10.8

     negative rho (up, down):  5.643E+00 0.000E+00

     total cpu time spent up to now is     5172.4 secs

     total energy              =   -6934.44533473 Ry
     Harris-Foulkes estimate   =   -6934.44533883 Ry
     estimated scf accuracy    <       0.00008617 Ry

     iteration # 52     ecut=    40.42 Ry     beta=0.20
     Davidson diagonalization with overlap
     ethr =  1.46E-08,  avg # of iterations =  1.2

     negative rho (up, down):  5.644E+00 0.000E+00

     total cpu time spent up to now is     5272.4 secs

     total energy              =   -6934.44532477 Ry
     Harris-Foulkes estimate   =   -6934.44533536 Ry
     estimated scf accuracy    <       0.00008274 Ry

     iteration # 53     ecut=    40.42 Ry     beta=0.20
     Davidson diagonalization with overlap
     ethr =  1.46E-08,  avg # of iterations =  2.0

     negative rho (up, down):  5.644E+00 0.000E+00

     total cpu time spent up to now is     5366.1 secs

     total energy              =   -6934.44532171 Ry
     Harris-Foulkes estimate   =   -6934.44532605 Ry
     estimated scf accuracy    <       0.00004416 Ry

     iteration # 54     ecut=    40.42 Ry     beta=0.20
     Davidson diagonalization with overlap
     c_bands:  1 eigenvalues not converged
     ethr =  7.86E-09,  avg # of iterations =  8.0

     negative rho (up, down):  5.644E+00 0.000E+00

     total cpu time spent up to now is     5469.3 secs

     total energy              =   -6934.44532305 Ry
     Harris-Foulkes estimate   =   -6934.44532426 Ry
     estimated scf accuracy    <       0.00002007 Ry

     iteration # 55     ecut=    40.42 Ry     beta=0.20
     Davidson diagonalization with overlap
     c_bands:  1 eigenvalues not converged
     ethr =  3.57E-09,  avg # of iterations =  6.2

     negative rho (up, down):  5.645E+00 0.000E+00

     total cpu time spent up to now is     5572.7 secs

     total energy              =   -6934.44532070 Ry
     Harris-Foulkes estimate   =   -6934.44532332 Ry
     estimated scf accuracy    <       0.00001794 Ry

     iteration # 56     ecut=    40.42 Ry     beta=0.20
     Davidson diagonalization with overlap
     ethr =  3.19E-09,  avg # of iterations =  4.2

     negative rho (up, down):  5.645E+00 0.000E+00

     total cpu time spent up to now is     5672.8 secs

     total energy              =   -6934.44531757 Ry
     Harris-Foulkes estimate   =   -6934.44532103 Ry
     estimated scf accuracy    <       0.00001155 Ry

     iteration # 57     ecut=    40.42 Ry     beta=0.20
     Davidson diagonalization with overlap
     ethr =  2.06E-09,  avg # of iterations = 14.0

     negative rho (up, down):  5.645E+00 0.000E+00

     total cpu time spent up to now is     5789.9 secs

     total energy              =   -6934.44531966 Ry
     Harris-Foulkes estimate   =   -6934.44531963 Ry
     estimated scf accuracy    <       0.00003074 Ry

     iteration # 58     ecut=    40.42 Ry     beta=0.20
     Davidson diagonalization with overlap
     ethr =  2.06E-09,  avg # of iterations =  1.0

     negative rho (up, down):  5.645E+00 0.000E+00

     total cpu time spent up to now is     5885.5 secs

     total energy              =   -6934.44532032 Ry
     Harris-Foulkes estimate   =   -6934.44531972 Ry
     estimated scf accuracy    <       0.00002935 Ry

     iteration # 59     ecut=    40.42 Ry     beta=0.20
     Davidson diagonalization with overlap
     ethr =  2.06E-09,  avg # of iterations =  1.0

     negative rho (up, down):  5.645E+00 0.000E+00

     total cpu time spent up to now is     5981.1 secs

     total energy              =   -6934.44532118 Ry
     Harris-Foulkes estimate   =   -6934.44532042 Ry
     estimated scf accuracy    <       0.00003556 Ry

     iteration # 60     ecut=    40.42 Ry     beta=0.20
     Davidson diagonalization with overlap
     ethr =  2.06E-09,  avg # of iterations =  2.8

     negative rho (up, down):  5.645E+00 0.000E+00

     total cpu time spent up to now is     6078.4 secs

     total energy              =   -6934.44531899 Ry
     Harris-Foulkes estimate   =   -6934.44532134 Ry
     estimated scf accuracy    <       0.00003377 Ry

     iteration # 61     ecut=    40.42 Ry     beta=0.20
     Davidson diagonalization with overlap
     ethr =  2.06E-09,  avg # of iterations =  1.0

     negative rho (up, down):  5.645E+00 0.000E+00

     total cpu time spent up to now is     6173.6 secs

     total energy              =   -6934.44531516 Ry
     Harris-Foulkes estimate   =   -6934.44531913 Ry
     estimated scf accuracy    <       0.00002635 Ry

     iteration # 62     ecut=    40.42 Ry     beta=0.20
     Davidson diagonalization with overlap
     ethr =  2.06E-09,  avg # of iterations =  8.8

     negative rho (up, down):  5.645E+00 0.000E+00

     total cpu time spent up to now is     6290.2 secs

     total energy              =   -6934.44531845 Ry
     Harris-Foulkes estimate   =   -6934.44531907 Ry
     estimated scf accuracy    <       0.00003220 Ry

     iteration # 63     ecut=    40.42 Ry     beta=0.20
     Davidson diagonalization with overlap
     ethr =  2.06E-09,  avg # of iterations =  1.0

     negative rho (up, down):  5.645E+00 0.000E+00

     total cpu time spent up to now is     6387.9 secs

     total energy              =   -6934.44531643 Ry
     Harris-Foulkes estimate   =   -6934.44531856 Ry
     estimated scf accuracy    <       0.00002645 Ry

     iteration # 64     ecut=    40.42 Ry     beta=0.20
     Davidson diagonalization with overlap
     ethr =  2.06E-09,  avg # of iterations = 10.5

     negative rho (up, down):  5.645E+00 0.000E+00

     total cpu time spent up to now is     6504.0 secs

     total energy              =   -6934.44531718 Ry
     Harris-Foulkes estimate   =   -6934.44531883 Ry
     estimated scf accuracy    <       0.00001128 Ry

     iteration # 65     ecut=    40.42 Ry     beta=0.20
     Davidson diagonalization with overlap
     ethr =  2.01E-09,  avg # of iterations =  1.0

     negative rho (up, down):  5.646E+00 0.000E+00

     total cpu time spent up to now is     6599.5 secs

     total energy              =   -6934.44531491 Ry
     Harris-Foulkes estimate   =   -6934.44531747 Ry
     estimated scf accuracy    <       0.00000545 Ry

     iteration # 66     ecut=    40.42 Ry     beta=0.20
     Davidson diagonalization with overlap
     ethr =  9.69E-10,  avg # of iterations =  8.2

     negative rho (up, down):  5.646E+00 0.000E+00

     total cpu time spent up to now is     6730.3 secs

     total energy              =   -6934.44531681 Ry
     Harris-Foulkes estimate   =   -6934.44531968 Ry
     estimated scf accuracy    <       0.00006086 Ry

     iteration # 67     ecut=    40.42 Ry     beta=0.20
     Davidson diagonalization with overlap
     ethr =  9.69E-10,  avg # of iterations =  9.2

     negative rho (up, down):  5.646E+00 0.000E+00

     total cpu time spent up to now is     6836.9 secs

     total energy              =   -6934.44531517 Ry
     Harris-Foulkes estimate   =   -6934.44531736 Ry
     estimated scf accuracy    <       0.00002481 Ry

     iteration # 68     ecut=    40.42 Ry     beta=0.20
     Davidson diagonalization with overlap
     c_bands:  1 eigenvalues not converged
     ethr =  9.69E-10,  avg # of iterations = 12.5

     negative rho (up, down):  5.646E+00 0.000E+00

     total cpu time spent up to now is     6949.9 secs

     total energy              =   -6934.44531493 Ry
     Harris-Foulkes estimate   =   -6934.44531577 Ry
     estimated scf accuracy    <       0.00000451 Ry

     iteration # 69     ecut=    40.42 Ry     beta=0.20
     Davidson diagonalization with overlap
     c_bands:  1 eigenvalues not converged
     ethr =  8.02E-10,  avg # of iterations =  7.2

     negative rho (up, down):  5.646E+00 0.000E+00

     total cpu time spent up to now is     7061.9 secs

     total energy              =   -6934.44531474 Ry
     Harris-Foulkes estimate   =   -6934.44531526 Ry
     estimated scf accuracy    <       0.00000128 Ry

     iteration # 70     ecut=    40.42 Ry     beta=0.20
     Davidson diagonalization with overlap
     c_bands:  2 eigenvalues not converged
     c_bands:  2 eigenvalues not converged
     ethr =  2.28E-10,  avg # of iterations = 11.5

     negative rho (up, down):  5.647E+00 0.000E+00

     total cpu time spent up to now is     7166.8 secs

     End of self-consistent calculation

          k = 0.0000 0.0000 0.0000 ( 94123 PWs)   bands (ev):

   -53.8390 -53.8365 -53.8316 -53.8056 -53.8031 -53.7996 -53.7724 -53.7699
   -53.7598 -53.7582 -53.7563 -53.7561 -53.7505 -53.7491 -53.7459 -53.7452
   -53.7434 -53.7432 -53.6713 -53.6694 -53.6570 -53.6540 -53.6531 -53.6480
   -53.6403 -53.6399 -53.6324 -53.6304 -53.6301 -53.6288 -53.6278 -53.6268
   -53.6252 -53.6228 -53.6221 -53.6191 -53.5983 -53.5968 -53.5930 -53.5929
   -53.5878 -53.5867 -53.5733 -53.5725 -53.5663 -53.5316 -53.5280 -53.5269
   -53.5222 -53.5203 -53.5197 -53.5192 -53.5187 -53.5171 -53.5107 -53.4814
   -53.4809 -53.4764 -53.4753 -53.4743 -53.4735 -53.4713 -53.4711 -53.4565
   -53.4383 -53.4382 -53.4060 -53.4038 -53.4033 -53.4017 -53.4002 -53.3713
   -53.3363 -53.3354 -53.3325 -53.3324 -53.3317 -53.3312 -53.3301 -53.3236
   -53.2922 -53.2599 -53.2593 -53.2574 -53.2570 -53.2567 -53.2556 -53.2544
   -53.2472 -53.2407 -53.2357 -53.2320 -53.2314 -53.2296 -53.2293 -53.2272
   -24.0033 -23.4102 -21.6414 -21.0146 -16.5414 -14.3716 -12.6137 -11.8314
    -9.7266  -9.6378  -8.5171  -8.3694  -8.1402  -7.9909  -7.8788  -7.8763
    -7.8747  -7.8740  -7.8738  -7.8318  -7.5726  -7.2617  -7.2053  -7.2037
    -7.2027  -7.1253  -7.1223  -7.1192  -6.7321  -6.6059  -6.5916  -6.5905
    -6.5901  -6.5886  -6.5866  -6.3762  -6.3596  -6.3477  -6.3311  -6.3275
    -6.3260  -6.3211  -6.3209  -6.3201  -6.3126  -6.0053  -5.8107  -5.7790
    -5.7789  -5.7744  -5.7736  -5.7728  -5.7669  -5.7436  -5.7410  -5.7379
    -5.7360  -5.7353  -5.7034  -5.4596  -5.4427  -5.4394  -5.4391  -5.4382
    -5.4179  -5.3787  -4.8603  -4.8544  -4.8480  -4.7761  -4.7271  -4.7174
    -4.7166  -4.7146  -4.7144  -4.7132  -4.5883  -4.5691  -4.5323  -4.5250
    -4.5245  -4.5224  -4.5168  -4.4625  -4.4444  -4.4301  -4.4295  -4.4280
    -4.4211  -4.3875  -4.3874  -4.2757  -4.2271  -4.2220  -4.2141  -4.2132
    -4.2112  -4.2108  -4.2054  -4.2053  -4.1836  -4.1778  -4.1723  -4.1720
    -4.1572  -4.0695  -3.9063  -3.8990  -3.8982  -3.8958  -3.8802  -3.8584
    -3.8177  -3.8139  -3.8093  -3.8078  -3.8067  -3.7833  -3.6074  -3.5805
    -3.5777  -3.5716  -3.3598  -3.3574  -3.3494  -3.3489  -3.3478  -3.3473
    -2.9485  -2.8656  -2.8653  -2.8595  -2.8593  -2.8588  -2.8571  -2.7567
    -2.7279  -2.7274  -2.7253  -2.7169  -2.7056  -2.6600  -2.6556  -2.6319
    -2.6212  -2.4860  -2.3293  -2.3277  -2.3217  -2.3202  -2.3193  -2.3179
    -2.3069  -2.3062  -2.2733  -2.2680  -2.2592  -2.2586  -2.2563  -2.2552
    -2.1797  -2.0719  -2.0659  -2.0636  -2.0620  -2.0615  -2.0588  -2.0578
    -2.0548  -1.9693  -1.5556  -1.5545  -1.5458  -1.3232  -1.3201  -1.3038
    -1.3033  -1.3029  -1.3016  -1.3012  -1.3004  -1.1373  -1.1344  -1.1335
    -1.1326  -1.1315  -1.1172  -0.7564  -0.7509  -0.7499  -0.7457  -0.7333
    -0.7311  -0.7272  -0.7226

          k = 0.0000-0.0520 0.0000 ( 94050 PWs)   bands (ev):

   -53.8181 -53.8075 -53.8042 -53.8026 -53.7919 -53.7820 -53.7793 -53.7745
   -53.7736 -53.7723 -53.7716 -53.7683 -53.7570 -53.7485 -53.7427 -53.7384
   -53.7294 -53.7233 -53.7206 -53.7188 -53.7072 -53.7054 -53.7012 -53.6991
   -53.6811 -53.6739 -53.6393 -53.6304 -53.6097 -53.6070 -53.6036 -53.5978
   -53.5970 -53.5951 -53.5943 -53.5930 -53.5661 -53.5655 -53.5610 -53.5586
   -53.5567 -53.5552 -53.5546 -53.5495 -53.5450 -53.5444 -53.5380 -53.5276
   -53.5240 -53.5226 -53.5216 -53.5187 -53.5156 -53.5132 -53.5105 -53.5055
   -53.5045 -53.5034 -53.4916 -53.4870 -53.4857 -53.4795 -53.4757 -53.4503
   -53.4483 -53.4400 -53.4302 -53.4128 -53.4003 -53.3731 -53.3709 -53.3692
   -53.3637 -53.3596 -53.3446 -53.3335 -53.3307 -53.3299 -53.3155 -53.3016
   -53.2904 -53.2717 -53.2702 -53.2583 -53.2561 -53.2542 -53.2501 -53.2465
   -53.2437 -53.2406 -53.2381 -53.2362 -53.2318 -53.2289 -53.2284 -53.2265
   -24.0033 -23.4102 -21.6414 -21.0146 -16.5414 -14.3716 -12.6137 -11.8313
    -9.7213  -9.1109  -9.0994  -8.5091  -8.3700  -8.1954  -8.1573  -8.0615
    -7.5764  -7.4587  -7.4514  -7.2679  -7.2630  -7.2571  -7.0694  -7.0689
    -7.0674  -7.0648  -6.8607  -6.8564  -6.8329  -6.8309  -6.8285  -6.8273
    -6.7299  -6.6309  -6.6260  -6.6255  -6.6218  -6.5612  -6.5545  -6.3423
    -6.2073  -6.1960  -6.1952  -6.1917  -6.1802  -6.1517  -6.1474  -6.1472
    -6.1179  -6.1012  -6.1007  -6.0964  -5.9636  -5.8573  -5.8500  -5.8040
    -5.7504  -5.7482  -5.7462  -5.7332  -5.7132  -5.7011  -5.3926  -5.2101
    -5.2053  -5.0347  -5.0249  -4.7886  -4.7574  -4.7508  -4.7193  -4.7035
    -4.7012  -4.6964  -4.6957  -4.6785  -4.6293  -4.6181  -4.5994  -4.5869
    -4.5850  -4.5822  -4.5628  -4.5590  -4.5205  -4.5059  -4.5034  -4.4776
    -4.4729  -4.4606  -4.3924  -4.3861  -4.3772  -4.3714  -4.2221  -4.1527
    -4.1444  -4.1372  -4.0967  -3.9972  -3.9924  -3.9287  -3.9253  -3.9247
    -3.9186  -3.8780  -3.8642  -3.8504  -3.8453  -3.7923  -3.7744  -3.6714
    -3.6527  -3.6070  -3.4808  -3.4697  -3.4283  -3.4262  -3.4210  -3.4192
    -3.3527  -3.3484  -3.3084  -3.2954  -3.1159  -3.1116  -3.1010  -3.0967
    -3.0924  -3.0915  -3.0433  -3.0367  -2.9188  -2.8534  -2.8309  -2.8188
    -2.8107  -2.8096  -2.7930  -2.7585  -2.7149  -2.6481  -2.4699  -2.4666
    -2.4593  -2.4520  -2.4450  -2.4253  -2.3574  -2.3527  -2.3462  -2.3018
    -2.1832  -2.1642  -2.1514  -1.9415  -1.9389  -1.9357  -1.9318  -1.8484
    -1.8398  -1.8360  -1.8340  -1.7558  -1.7553  -1.7542  -1.7526  -1.7390
    -1.7361  -1.7160  -1.7107  -1.6905  -1.6871  -1.6106  -1.5886  -1.5762
    -1.5481  -1.4782  -1.4665  -1.4511  -1.4465  -1.4439  -1.4114  -1.2983
    -1.2884  -1.2292  -1.2252  -1.1993  -1.1957  -1.1159  -1.1145  -1.1143
    -1.1035  -1.0334  -1.0328

          k = 0.0450-0.0260 0.0000 ( 94050 PWs)   bands (ev):

   -53.8143 -53.8113 -53.8036 -53.8029 -53.7936 -53.7798 -53.7794 -53.7758
   -53.7732 -53.7727 -53.7723 -53.7682 -53.7570 -53.7485 -53.7429 -53.7385
   -53.7281 -53.7237 -53.7209 -53.7183 -53.7073 -53.7052 -53.7012 -53.6989
   -53.6809 -53.6737 -53.6385 -53.6304 -53.6104 -53.6078 -53.6028 -53.5983
   -53.5972 -53.5957 -53.5941 -53.5929 -53.5673 -53.5653 -53.5606 -53.5578
   -53.5568 -53.5551 -53.5535 -53.5492 -53.5473 -53.5440 -53.5383 -53.5275
   -53.5237 -53.5225 -53.5221 -53.5186 -53.5156 -53.5124 -53.5105 -53.5048
   -53.5046 -53.5035 -53.4914 -53.4875 -53.4859 -53.4793 -53.4758 -53.4503
   -53.4484 -53.4397 -53.4306 -53.4130 -53.4002 -53.3729 -53.3713 -53.3684
   -53.3644 -53.3585 -53.3450 -53.3344 -53.3326 -53.3299 -53.3112 -53.3019
   -53.2934 -53.2718 -53.2672 -53.2575 -53.2574 -53.2554 -53.2512 -53.2463
   -53.2428 -53.2402 -53.2386 -53.2358 -53.2323 -53.2287 -53.2282 -53.2267
   -24.0033 -23.4102 -21.6414 -21.0146 -16.5414 -14.3716 -12.6137 -11.8312
    -9.7212  -9.1107  -9.1005  -8.5083  -8.3691  -8.1861  -8.1597  -8.0706
    -7.5754  -7.4584  -7.4511  -7.2716  -7.2639  -7.2521  -7.0698  -7.0687
    -7.0671  -7.0654  -6.8598  -6.8587  -6.8322  -6.8304  -6.8285  -6.8271
    -6.7272  -6.6296  -6.6282  -6.6251  -6.6226  -6.5620  -6.5540  -6.3414
    -6.2009  -6.1963  -6.1918  -6.1914  -6.1857  -6.1569  -6.1483  -6.1471
    -6.1112  -6.1006  -6.1002  -6.0970  -5.9925  -5.8562  -5.8436  -5.8016
    -5.7507  -5.7482  -5.7470  -5.7200  -5.7129  -5.6988  -5.3949  -5.2109
    -5.2048  -5.0367  -5.0291  -4.7845  -4.7575  -4.7507  -4.7318  -4.7082
    -4.7016  -4.7011  -4.6817  -4.6756  -4.6260  -4.6175  -4.5964  -4.5877
    -4.5849  -4.5841  -4.5663  -4.5623  -4.5267  -4.5036  -4.4885  -4.4804
    -4.4714  -4.4634  -4.3951  -4.3877  -4.3768  -4.3716  -4.2329  -4.1484
    -4.1444  -4.1374  -4.0642  -3.9971  -3.9924  -3.9400  -3.9254  -3.9239
    -3.9190  -3.8675  -3.8558  -3.8482  -3.8453  -3.7916  -3.7852  -3.6725
    -3.6693  -3.6080  -3.4769  -3.4701  -3.4276  -3.4227  -3.4202  -3.4197
    -3.3573  -3.3471  -3.3154  -3.2970  -3.1303  -3.1151  -3.1018  -3.0937
    -3.0935  -3.0846  -3.0419  -3.0352  -2.9082  -2.8446  -2.8309  -2.8203
    -2.8102  -2.8048  -2.7928  -2.7731  -2.7089  -2.6552  -2.4699  -2.4632
    -2.4605  -2.4516  -2.4450  -2.4279  -2.3604  -2.3496  -2.3485  -2.2907
    -2.1825  -2.1634  -2.1542  -1.9458  -1.9397  -1.9347  -1.9331  -1.8488
    -1.8393  -1.8357  -1.8345  -1.7571  -1.7557  -1.7548  -1.7463  -1.7395
    -1.7375  -1.7156  -1.7105  -1.6911  -1.6888  -1.6121  -1.5857  -1.5732
    -1.5568  -1.4775  -1.4667  -1.4516  -1.4456  -1.4444  -1.4066  -1.2969
    -1.2887  -1.2288  -1.2257  -1.1983  -1.1963  -1.1180  -1.1154  -1.1145
    -1.1035  -1.0333  -1.0332

          k =-0.0450-0.0260 0.0000 ( 94050 PWs)   bands (ev):

   -53.8172 -53.8083 -53.8043 -53.8024 -53.7924 -53.7818 -53.7793 -53.7746
   -53.7738 -53.7724 -53.7713 -53.7683 -53.7573 -53.7485 -53.7429 -53.7383
   -53.7291 -53.7234 -53.7206 -53.7187 -53.7072 -53.7054 -53.7012 -53.6990
   -53.6811 -53.6738 -53.6392 -53.6302 -53.6097 -53.6075 -53.6037 -53.5980
   -53.5969 -53.5949 -53.5938 -53.5931 -53.5667 -53.5655 -53.5610 -53.5585
   -53.5568 -53.5551 -53.5549 -53.5496 -53.5450 -53.5438 -53.5375 -53.5279
   -53.5242 -53.5226 -53.5215 -53.5188 -53.5153 -53.5135 -53.5105 -53.5057
   -53.5044 -53.5033 -53.4914 -53.4873 -53.4854 -53.4795 -53.4758 -53.4505
   -53.4481 -53.4400 -53.4304 -53.4125 -53.4004 -53.3731 -53.3707 -53.3693
   -53.3641 -53.3598 -53.3440 -53.3341 -53.3300 -53.3297 -53.3163 -53.3015
   -53.2900 -53.2713 -53.2707 -53.2587 -53.2556 -53.2540 -53.2500 -53.2463
   -53.2443 -53.2405 -53.2380 -53.2362 -53.2318 -53.2290 -53.2283 -53.2265
   -24.0033 -23.4102 -21.6414 -21.0146 -16.5414 -14.3716 -12.6136 -11.8313
    -9.7213  -9.1110  -9.0998  -8.5094  -8.3681  -8.1939  -8.1557  -8.0659
    -7.5775  -7.4585  -7.4501  -7.2697  -7.2633  -7.2546  -7.0697  -7.0682
    -7.0676  -7.0654  -6.8603  -6.8553  -6.8325  -6.8309  -6.8290  -6.8284
    -6.7285  -6.6316  -6.6271  -6.6256  -6.6223  -6.5618  -6.5543  -6.3405
    -6.2160  -6.1953  -6.1946  -6.1913  -6.1681  -6.1533  -6.1477  -6.1471
    -6.1350  -6.1012  -6.1007  -6.0963  -5.9403  -5.8579  -5.8556  -5.8030
    -5.7522  -5.7487  -5.7465  -5.7372  -5.7131  -5.6993  -5.3917  -5.2107
    -5.2054  -5.0378  -5.0256  -4.7837  -4.7578  -4.7513  -4.7280  -4.7042
    -4.7018  -4.7009  -4.6896  -4.6780  -4.6238  -4.6181  -4.5949  -4.5867
    -4.5851  -4.5830  -4.5661  -4.5621  -4.5260  -4.5045  -4.4953  -4.4771
    -4.4726  -4.4616  -4.3971  -4.3874  -4.3783  -4.3722  -4.2271  -4.1494
    -4.1438  -4.1399  -4.0735  -3.9973  -3.9924  -3.9338  -3.9269  -3.9243
    -3.9202  -3.8762  -3.8561  -3.8497  -3.8452  -3.7916  -3.7781  -3.6718
    -3.6612  -3.6087  -3.4791  -3.4696  -3.4283  -3.4231  -3.4209  -3.4191
    -3.3565  -3.3485  -3.3086  -3.2990  -3.1226  -3.1134  -3.1042  -3.0957
    -3.0918  -3.0864  -3.0432  -3.0360  -2.9166  -2.8478  -2.8296  -2.8201
    -2.8116  -2.8088  -2.7834  -2.7611  -2.7206  -2.6479  -2.4703  -2.4653
    -2.4616  -2.4512  -2.4450  -2.4251  -2.3571  -2.3520  -2.3460  -2.3031
    -2.1807  -2.1633  -2.1562  -1.9429  -1.9389  -1.9363  -1.9316  -1.8502
    -1.8378  -1.8366  -1.8340  -1.7574  -1.7555  -1.7530  -1.7500  -1.7403
    -1.7364  -1.7157  -1.7107  -1.6915  -1.6876  -1.6126  -1.5886  -1.5763
    -1.5461  -1.4777  -1.4659  -1.4507  -1.4457  -1.4439  -1.4124  -1.2977
    -1.2884  -1.2289  -1.2256  -1.1992  -1.1955  -1.1192  -1.1145  -1.1132
    -1.1017  -1.0337  -1.0329

     the Fermi energy is    -1.2264 ev

!    total energy              =   -6934.44531425 Ry
     Harris-Foulkes estimate   =   -6934.44531484 Ry
     estimated scf accuracy    <       0.00000063 Ry

     The total energy is the sum of the following terms:

     one-electron contribution =  -63056.53292283 Ry
     hartree contribution      =   31570.73740128 Ry
     xc contribution           =   -1869.47422340 Ry
     ewald contribution        =   26420.96833863 Ry
     smearing contrib. (-TS)   =      -0.14390793 Ry

     convergence has been achieved in  70 iterations

     Forces acting on atoms (Ry/au):


     negative rho (up, down):  5.647E+00 0.000E+00
     atom    1 type  1   force =    -0.00041631    0.00022513   -0.01817568
     atom    2 type  1   force =    -0.00008721    0.00057402    0.01796901
     atom    3 type  1   force =    -0.00036241    0.00100697   -0.01882488
     atom    4 type  1   force =    -0.00111655   -0.00453403    0.01743275
     atom    5 type  1   force =     0.00004534   -0.00104160   -0.01965698
     atom    6 type  1   force =    -0.00424577    0.00078994    0.01993593
     atom    7 type  1   force =     0.00018338   -0.00046226   -0.01812945
     atom    8 type  1   force =     0.00017019   -0.00009445    0.01826692
     atom    9 type  1   force =     0.00033692    0.00012172   -0.01814417
     atom   10 type  1   force =    -0.00017238   -0.00035757    0.01846463
     atom   11 type  1   force =    -0.00034586   -0.00149378   -0.01818584
     atom   12 type  1   force =     0.00132399   -0.00395540    0.01665096
     atom   13 type  1   force =     0.00264548    0.00154844   -0.01685917
     atom   14 type  1   force =     0.00870977   -0.00305849   -0.00055997
     atom   15 type  1   force =    -0.00130179    0.00074890   -0.01845262
     atom   16 type  1   force =    -0.00282411    0.00369233    0.01802612
     atom   17 type  1   force =     0.00106859    0.00034078   -0.01900953
     atom   18 type  1   force =    -0.00015529   -0.00022652    0.01764930
     atom   19 type  1   force =     0.00074209    0.00096670   -0.01866453
     atom   20 type  1   force =    -0.00017599    0.00009206    0.01805546
     atom   21 type  1   force =    -0.00119498    0.00073885   -0.01971518
     atom   22 type  1   force =     0.00391972    0.00097111    0.01629768
     atom   23 type  1   force =    -0.00011483   -0.00281714   -0.01717200
     atom   24 type  1   force =     0.00314003    0.00308544    0.01707053
     atom   25 type  1   force =    -0.00105157   -0.00023899   -0.01867094
     atom   26 type  1   force =     0.00039345   -0.00016433    0.01831145
     atom   27 type  1   force =     0.00001460   -0.00008142   -0.01833452
     atom   28 type  1   force =    -0.00011014    0.00024337    0.01746077
     atom   29 type  1   force =    -0.00059578   -0.00108943   -0.01871259
     atom   30 type  1   force =     0.00044080    0.00023372    0.01824185
     atom   31 type  1   force =     0.00113805    0.00098979   -0.01797890
     atom   32 type  1   force =    -0.00058910   -0.00021086    0.01792905
     atom   33 type  2   force =    -0.00308620    0.00961051   -0.01078617
     atom   34 type  2   force =     0.00143425    0.02804720   -0.01787491
     atom   35 type  2   force =     0.02519723    0.00117220   -0.03111467
     atom   36 type  2   force =    -0.00039831    0.00508964   -0.01375999
     atom   37 type  3   force =    -0.00419126   -0.00865755    0.01592542
     atom   38 type  3   force =     0.00382270   -0.01908017    0.01114951
     atom   39 type  3   force =    -0.02023127    0.00248078    0.04232812
     atom   40 type  3   force =     0.00161353   -0.00119035    0.02858471
     atom   41 type  3   force =     0.00157855   -0.00041808   -0.00933126
     atom   42 type  4   force =    -0.00044811    0.00440466   -0.00514193
     atom   43 type  4   force =     0.00160765   -0.00192744   -0.00551350
     atom   44 type  4   force =    -0.00041279   -0.00536377   -0.00638789
     atom   45 type  4   force =     0.00053526    0.00617467    0.00726775
     atom   46 type  4   force =    -0.01475861    0.00094516    0.01625038
     atom   47 type  4   force =    -0.00167493   -0.01783048    0.00588899

     Total force =     0.136594     Total SCF correction =     0.003288
 !ASE

     Writing output data file calc.save
     Check: negative starting charge=   -5.894144
     NEW-OLD atomic charge density approx. for the potential
     Check: negative starting charge=   -5.907383

     negative rho (up, down):  5.663E+00 0.000E+00

     total cpu time spent up to now is     7240.8 secs

     per-process dynamical memory:   444.9 Mb

     Self-consistent Calculation

     iteration #  1     ecut=    40.42 Ry     beta=0.20
     Davidson diagonalization with overlap
     c_bands:  1 eigenvalues not converged
     ethr =  2.28E-10,  avg # of iterations = 25.8

     negative rho (up, down):  5.660E+00 0.000E+00

     total cpu time spent up to now is     7670.1 secs

     total energy              =   -6934.26503446 Ry
     Harris-Foulkes estimate   =   -6934.27948731 Ry
     estimated scf accuracy    <       0.14393664 Ry

     iteration #  2     ecut=    40.42 Ry     beta=0.20
     Davidson diagonalization with overlap
     ethr =  2.56E-05,  avg # of iterations =  1.0

     negative rho (up, down):  5.665E+00 0.000E+00

     total cpu time spent up to now is     7764.0 secs

     total energy              =   -6934.23541531 Ry
     Harris-Foulkes estimate   =   -6934.26571859 Ry
     estimated scf accuracy    <       0.09430160 Ry

     iteration #  3     ecut=    40.42 Ry     beta=0.20
     Davidson diagonalization with overlap
     ethr =  1.68E-05,  avg # of iterations =  5.0

     negative rho (up, down):  5.669E+00 0.000E+00

     total cpu time spent up to now is     7873.7 secs

     total energy              =   -6934.23293574 Ry
     Harris-Foulkes estimate   =   -6934.24078025 Ry
     estimated scf accuracy    <       0.02703653 Ry

     iteration #  4     ecut=    40.42 Ry     beta=0.20
     Davidson diagonalization with overlap
     ethr =  4.81E-06,  avg # of iterations =  6.8

     negative rho (up, down):  5.670E+00 0.000E+00

     total cpu time spent up to now is     7983.3 secs

     total energy              =   -6934.23335927 Ry
     Harris-Foulkes estimate   =   -6934.23488360 Ry
     estimated scf accuracy    <       0.01068238 Ry

     iteration #  5     ecut=    40.42 Ry     beta=0.20
     Davidson diagonalization with overlap
     ethr =  1.90E-06,  avg # of iterations =  4.2

     negative rho (up, down):  5.666E+00 0.000E+00

     total cpu time spent up to now is     8084.7 secs

     total energy              =   -6934.23282730 Ry
     Harris-Foulkes estimate   =   -6934.23393300 Ry
     estimated scf accuracy    <       0.00500470 Ry

     iteration #  6     ecut=    40.42 Ry     beta=0.20
     Davidson diagonalization with overlap
     ethr =  8.91E-07,  avg # of iterations =  3.5

     negative rho (up, down):  5.665E+00 0.000E+00

     total cpu time spent up to now is     8186.2 secs

     total energy              =   -6934.23314556 Ry
     Harris-Foulkes estimate   =   -6934.23324372 Ry
     estimated scf accuracy    <       0.00227866 Ry

     iteration #  7     ecut=    40.42 Ry     beta=0.20
     Davidson diagonalization with overlap
     c_bands:  1 eigenvalues not converged
     c_bands:  2 eigenvalues not converged
     ethr =  4.05E-07,  avg # of iterations = 14.5

     negative rho (up, down):  5.662E+00 0.000E+00

     total cpu time spent up to now is     8301.6 secs

     total energy              =   -6934.23306052 Ry
     Harris-Foulkes estimate   =   -6934.23320642 Ry
     estimated scf accuracy    <       0.00174690 Ry

     iteration #  8     ecut=    40.42 Ry     beta=0.20
     Davidson diagonalization with overlap
     ethr =  3.11E-07,  avg # of iterations =  3.0

     negative rho (up, down):  5.659E+00 0.000E+00

     total cpu time spent up to now is     8401.9 secs

     total energy              =   -6934.23300079 Ry
     Harris-Foulkes estimate   =   -6934.23309432 Ry
     estimated scf accuracy    <       0.00144410 Ry

     iteration #  9     ecut=    40.42 Ry     beta=0.20
     Davidson diagonalization with overlap
     ethr =  2.57E-07,  avg # of iterations =  2.0

     negative rho (up, down):  5.657E+00 0.000E+00

     total cpu time spent up to now is     8499.5 secs

     total energy              =   -6934.23297818 Ry
     Harris-Foulkes estimate   =   -6934.23303576 Ry
     estimated scf accuracy    <       0.00115975 Ry

     iteration # 10     ecut=    40.42 Ry     beta=0.20
     Davidson diagonalization with overlap
     ethr =  2.06E-07,  avg # of iterations =  2.0

     negative rho (up, down):  5.654E+00 0.000E+00

     total cpu time spent up to now is     8597.9 secs

     total energy              =   -6934.23289151 Ry
     Harris-Foulkes estimate   =   -6934.23298786 Ry
     estimated scf accuracy    <       0.00098887 Ry

     iteration # 11     ecut=    40.42 Ry     beta=0.20
     Davidson diagonalization with overlap
     ethr =  1.76E-07,  avg # of iterations =  1.5

     negative rho (up, down):  5.654E+00 0.000E+00

     total cpu time spent up to now is     8696.0 secs

     total energy              =   -6934.23270431 Ry
     Harris-Foulkes estimate   =   -6934.23290801 Ry
     estimated scf accuracy    <       0.00079857 Ry

     iteration # 12     ecut=    40.42 Ry     beta=0.20
     Davidson diagonalization with overlap
     ethr =  1.42E-07,  avg # of iterations =  3.0

     negative rho (up, down):  5.654E+00 0.000E+00

     total cpu time spent up to now is     8796.8 secs

     total energy              =   -6934.23269962 Ry
     Harris-Foulkes estimate   =   -6934.23274027 Ry
     estimated scf accuracy    <       0.00043280 Ry

     iteration # 13     ecut=    40.42 Ry     beta=0.20
     Davidson diagonalization with overlap
     c_bands:  1 eigenvalues not converged
     ethr =  7.70E-08,  avg # of iterations =  6.5

     negative rho (up, down):  5.656E+00 0.000E+00

     total cpu time spent up to now is     8903.8 secs

     total energy              =   -6934.23257873 Ry
     Harris-Foulkes estimate   =   -6934.23270524 Ry
     estimated scf accuracy    <       0.00034469 Ry

     iteration # 14     ecut=    40.42 Ry     beta=0.20
     Davidson diagonalization with overlap
     ethr =  6.13E-08,  avg # of iterations = 11.5

     negative rho (up, down):  5.656E+00 0.000E+00

     total cpu time spent up to now is     9019.0 secs

     total energy              =   -6934.23259050 Ry
     Harris-Foulkes estimate   =   -6934.23260514 Ry
     estimated scf accuracy    <       0.00016910 Ry

     iteration # 15     ecut=    40.42 Ry     beta=0.20
     Davidson diagonalization with overlap
     ethr =  3.01E-08,  avg # of iterations =  3.0

     negative rho (up, down):  5.656E+00 0.000E+00

     total cpu time spent up to now is     9116.1 secs

     total energy              =   -6934.23257398 Ry
     Harris-Foulkes estimate   =   -6934.23259456 Ry
     estimated scf accuracy    <       0.00011849 Ry

     iteration # 16     ecut=    40.42 Ry     beta=0.20
     Davidson diagonalization with overlap
     ethr =  2.11E-08,  avg # of iterations =  3.0

     negative rho (up, down):  5.655E+00 0.000E+00

     total cpu time spent up to now is     9215.1 secs

     total energy              =   -6934.23257138 Ry
     Harris-Foulkes estimate   =   -6934.23257836 Ry
     estimated scf accuracy    <       0.00006889 Ry

     iteration # 17     ecut=    40.42 Ry     beta=0.20
     Davidson diagonalization with overlap
     ethr =  1.23E-08,  avg # of iterations =  3.0

     negative rho (up, down):  5.655E+00 0.000E+00

     total cpu time spent up to now is     9313.8 secs

     total energy              =   -6934.23256690 Ry
     Harris-Foulkes estimate   =   -6934.23257380 Ry
     estimated scf accuracy    <       0.00004321 Ry

     iteration # 18     ecut=    40.42 Ry     beta=0.20
     Davidson diagonalization with overlap
     c_bands:  2 eigenvalues not converged
     ethr =  7.69E-09,  avg # of iterations =  8.8

     negative rho (up, down):  5.655E+00 0.000E+00

     total cpu time spent up to now is     9423.6 secs

     total energy              =   -6934.23256835 Ry
     Harris-Foulkes estimate   =   -6934.23256985 Ry
     estimated scf accuracy    <       0.00002229 Ry

     iteration # 19     ecut=    40.42 Ry     beta=0.20
     Davidson diagonalization with overlap
     c_bands:  1 eigenvalues not converged
     ethr =  3.97E-09,  avg # of iterations =  7.5

     negative rho (up, down):  5.655E+00 0.000E+00

     total cpu time spent up to now is     9529.8 secs

     total energy              =   -6934.23256862 Ry
     Harris-Foulkes estimate   =   -6934.23256908 Ry
     estimated scf accuracy    <       0.00001594 Ry

     iteration # 20     ecut=    40.42 Ry     beta=0.20
     Davidson diagonalization with overlap
     ethr =  2.84E-09,  avg # of iterations =  2.0

     negative rho (up, down):  5.656E+00 0.000E+00

     total cpu time spent up to now is     9627.4 secs

     total energy              =   -6934.23256697 Ry
     Harris-Foulkes estimate   =   -6934.23256880 Ry
     estimated scf accuracy    <       0.00001280 Ry

     iteration # 21     ecut=    40.42 Ry     beta=0.20
     Davidson diagonalization with overlap
     ethr =  2.28E-09,  avg # of iterations =  1.2

     negative rho (up, down):  5.656E+00 0.000E+00

     total cpu time spent up to now is     9725.9 secs

     total energy              =   -6934.23256405 Ry
     Harris-Foulkes estimate   =   -6934.23256713 Ry
     estimated scf accuracy    <       0.00000943 Ry

     iteration # 22     ecut=    40.42 Ry     beta=0.20
     Davidson diagonalization with overlap
     ethr =  1.68E-09,  avg # of iterations =  6.2

     negative rho (up, down):  5.657E+00 0.000E+00

     total cpu time spent up to now is     9835.2 secs

     total energy              =   -6934.23256297 Ry
     Harris-Foulkes estimate   =   -6934.23256444 Ry
     estimated scf accuracy    <       0.00000402 Ry

     iteration # 23     ecut=    40.42 Ry     beta=0.20
     Davidson diagonalization with overlap
     ethr =  7.15E-10,  avg # of iterations =  7.5

     negative rho (up, down):  5.657E+00 0.000E+00

     total cpu time spent up to now is     9942.8 secs

     total energy              =   -6934.23256266 Ry
     Harris-Foulkes estimate   =   -6934.23256312 Ry
     estimated scf accuracy    <       0.00000218 Ry

     iteration # 24     ecut=    40.42 Ry     beta=0.20
     Davidson diagonalization with overlap
     ethr =  3.88E-10,  avg # of iterations =  3.0

     negative rho (up, down):  5.657E+00 0.000E+00

     total cpu time spent up to now is    10045.7 secs

     total energy              =   -6934.23256210 Ry
     Harris-Foulkes estimate   =   -6934.23256270 Ry
     estimated scf accuracy    <       0.00000166 Ry

     iteration # 25     ecut=    40.42 Ry     beta=0.20
     Davidson diagonalization with overlap
     ethr =  2.95E-10,  avg # of iterations =  2.5

     negative rho (up, down):  5.657E+00 0.000E+00

     total cpu time spent up to now is    10142.9 secs

     total energy              =   -6934.23256181 Ry
     Harris-Foulkes estimate   =   -6934.23256214 Ry
     estimated scf accuracy    <       0.00000109 Ry

     iteration # 26     ecut=    40.42 Ry     beta=0.20
     Davidson diagonalization with overlap
     ethr =  1.94E-10,  avg # of iterations =  1.8

     negative rho (up, down):  5.658E+00 0.000E+00

     total cpu time spent up to now is    10243.0 secs

     total energy              =   -6934.23256117 Ry
     Harris-Foulkes estimate   =   -6934.23256183 Ry
     estimated scf accuracy    <       0.00000081 Ry

     iteration # 27     ecut=    40.42 Ry     beta=0.20
     Davidson diagonalization with overlap
     ethr =  1.43E-10,  avg # of iterations =  2.2

     negative rho (up, down):  5.658E+00 0.000E+00

     total cpu time spent up to now is    10332.6 secs

     End of self-consistent calculation

          k = 0.0000 0.0000 0.0000 ( 94123 PWs)   bands (ev):

   -53.4878 -53.4837 -53.4721 -53.4554 -53.4523 -53.4469 -53.4279 -53.4254
   -53.4058 -53.4051 -53.3965 -53.3942 -53.3938 -53.3933 -53.3890 -53.3880
   -53.3837 -53.3829 -53.3311 -53.3294 -53.3023 -53.2949 -53.2933 -53.2879
   -53.2846 -53.2843 -53.2772 -53.2750 -53.2743 -53.2713 -53.2698 -53.2686
   -53.2674 -53.2616 -53.2591 -53.2564 -53.2493 -53.2491 -53.2470 -53.2425
   -53.2346 -53.2340 -53.2321 -53.2128 -53.2122 -53.2041 -53.1762 -53.1750
   -53.1730 -53.1688 -53.1681 -53.1583 -53.1578 -53.1547 -53.1528 -53.1372
   -53.1362 -53.1296 -53.1259 -53.1251 -53.1235 -53.1122 -53.1116 -53.0900
   -53.0894 -53.0333 -52.9922 -52.9892 -52.9883 -52.9863 -52.9828 -52.9689
   -52.9394 -52.9360 -52.9332 -52.9311 -52.9281 -52.9262 -52.9233 -52.9148
   -52.9104 -52.8754 -52.8740 -52.8730 -52.8723 -52.8691 -52.8689 -52.8676
   -52.8628 -52.8594 -52.8570 -52.8537 -52.8530 -52.8496 -52.8477 -52.8388
   -26.4954 -24.5017 -21.7701 -21.5591 -16.7371 -14.1785 -12.1139 -10.7350
    -9.3749  -9.2952  -9.1303  -8.9926  -8.5981  -8.1261  -7.9888  -7.6048
    -7.5061  -7.3923  -7.3570  -7.3522  -7.3490  -7.3473  -7.3451  -6.7889
    -6.7407  -6.7386  -6.7334  -6.6804  -6.6668  -6.6658  -6.5543  -6.2730
    -6.1863  -6.1704  -6.1689  -6.1652  -6.1580  -6.1485  -5.8134  -5.8013
    -5.7848  -5.7576  -5.7569  -5.7532  -5.7415  -5.7375  -5.7364  -5.7334
    -5.2974  -5.2835  -5.2816  -5.2768  -5.2654  -5.2641  -5.2240  -5.2096
    -5.2016  -5.1974  -5.1914  -5.1910  -4.9636  -4.9490  -4.9395  -4.9378
    -4.9338  -4.9292  -4.9160  -4.5641  -4.5348  -4.5152  -4.3867  -4.3234
    -4.3205  -4.3133  -4.3096  -4.3067  -4.3022  -4.2969  -4.1567  -4.1494
    -4.1420  -4.1385  -4.1334  -4.0562  -4.0178  -3.9900  -3.9782  -3.9764
    -3.9671  -3.9657  -3.9642  -3.9344  -3.9211  -3.9026  -3.8720  -3.8652
    -3.8640  -3.8622  -3.8599  -3.8469  -3.8212  -3.8140  -3.8104  -3.8027
    -3.7998  -3.7955  -3.7519  -3.7162  -3.5835  -3.5701  -3.5681  -3.5609
    -3.5225  -3.5079  -3.4650  -3.4513  -3.4453  -3.4428  -3.4336  -3.4002
    -3.1254  -3.0090  -3.0081  -2.9879  -2.9837  -2.8012  -2.7985  -2.7891
    -2.7829  -2.7782  -2.7738  -2.4912  -2.4881  -2.4861  -2.4727  -2.4610
    -2.4564  -2.4512  -2.4384  -2.4368  -2.4365  -2.4355  -2.4241  -2.3389
    -2.3151  -2.3057  -2.2149  -2.0408  -2.0389  -2.0369  -2.0252  -2.0224
    -2.0192  -2.0065  -2.0029  -1.9986  -1.9957  -1.9949  -1.9906  -1.8616
    -1.8581  -1.8166  -1.8145  -1.8135  -1.8033  -1.7923  -1.7693  -1.7208
    -1.7167  -1.6627  -1.3039  -1.3025  -1.2966  -1.0776  -1.0742  -1.0693
    -1.0648  -1.0638  -1.0619  -1.0236  -1.0218  -0.8816  -0.8796  -0.8790
    -0.8775  -0.8751  -0.8498  -0.5377  -0.5167  -0.5144  -0.5086  -0.5062
    -0.3764  -0.3751  -0.3675

          k = 0.0000-0.0520 0.0000 ( 94050 PWs)   bands (ev):

   -53.4744 -53.4605 -53.4467 -53.4455 -53.4393 -53.4307 -53.4224 -53.4200
   -53.4177 -53.4170 -53.4143 -53.4092 -53.4053 -53.3968 -53.3895 -53.3863
   -53.3811 -53.3647 -53.3600 -53.3571 -53.3548 -53.3522 -53.3437 -53.3425
   -53.3250 -53.3099 -53.2953 -53.2807 -53.2578 -53.2552 -53.2488 -53.2424
   -53.2401 -53.2362 -53.2338 -53.2305 -53.2273 -53.2126 -53.2083 -53.2053
   -53.2048 -53.2013 -53.2009 -53.1975 -53.1951 -53.1924 -53.1883 -53.1766
   -53.1759 -53.1706 -53.1701 -53.1661 -53.1612 -53.1590 -53.1558 -53.1536
   -53.1484 -53.1448 -53.1421 -53.1322 -53.1276 -53.1264 -53.1233 -53.1024
   -53.1003 -53.0235 -53.0147 -52.9963 -52.9898 -52.9649 -52.9621 -52.9583
   -52.9560 -52.9532 -52.9411 -52.9316 -52.9306 -52.9246 -52.9226 -52.9037
   -52.9010 -52.8836 -52.8803 -52.8735 -52.8692 -52.8686 -52.8674 -52.8633
   -52.8628 -52.8614 -52.8564 -52.8540 -52.8522 -52.8497 -52.8482 -52.8388
   -26.4954 -24.5017 -21.7701 -21.5591 -16.7371 -14.1785 -12.1139 -10.7347
    -9.3734  -9.2922  -8.9929  -8.6194  -8.5874  -8.5726  -8.1246  -7.9870
    -7.6498  -7.6316  -7.5006  -7.0632  -7.0572  -6.8174  -6.7695  -6.7557
    -6.6179  -6.5325  -6.5281  -6.5271  -6.5025  -6.4217  -6.4154  -6.3384
    -6.3355  -6.3295  -6.3265  -6.2713  -6.1744  -6.1660  -6.1581  -6.1505
    -6.1349  -6.1187  -5.7643  -5.7538  -5.7500  -5.7425  -5.7370  -5.6152
    -5.6048  -5.5986  -5.5933  -5.5771  -5.5515  -5.5284  -5.5196  -5.3307
    -5.3109  -5.2377  -5.2270  -5.2238  -5.2192  -5.1976  -5.1751  -4.9319
    -4.7693  -4.7529  -4.5889  -4.5787  -4.4696  -4.4018  -4.3712  -4.3680
    -4.3634  -4.3566  -4.3554  -4.3398  -4.2760  -4.2419  -4.2311  -4.2264
    -4.2170  -4.2021  -4.1982  -4.1929  -4.1702  -4.0946  -4.0739  -4.0542
    -4.0462  -4.0453  -4.0299  -4.0240  -4.0195  -4.0091  -3.9416  -3.9207
    -3.8711  -3.7917  -3.7815  -3.7497  -3.7214  -3.5710  -3.5684  -3.4976
    -3.4714  -3.4310  -3.4276  -3.4014  -3.3923  -3.3828  -3.3711  -3.3577
    -3.3560  -3.3164  -3.2951  -3.1506  -3.0076  -2.9951  -2.9781  -2.9702
    -2.9660  -2.9253  -2.9044  -2.8993  -2.8874  -2.8730  -2.8399  -2.7430
    -2.7144  -2.7104  -2.7092  -2.7074  -2.6856  -2.6401  -2.6309  -2.5303
    -2.5185  -2.4418  -2.4381  -2.4342  -2.4250  -2.3864  -2.3771  -2.2035
    -2.1879  -2.1762  -2.1617  -2.1472  -2.1376  -2.0639  -2.0256  -2.0127
    -2.0034  -1.8507  -1.8498  -1.6178  -1.6148  -1.6102  -1.6015  -1.5892
    -1.5888  -1.5817  -1.5806  -1.5002  -1.4962  -1.4936  -1.4868  -1.4547
    -1.4523  -1.4489  -1.4384  -1.3723  -1.3679  -1.2986  -1.2923  -1.2852
    -1.2480  -1.2206  -1.1983  -1.1631  -1.1562  -1.1538  -1.1172  -1.0290
    -1.0202  -0.9235  -0.9085  -0.8991  -0.8884  -0.8467  -0.8461  -0.8421
    -0.8231  -0.7061  -0.7053

          k = 0.0450-0.0260 0.0000 ( 94050 PWs)   bands (ev):

   -53.4696 -53.4663 -53.4480 -53.4445 -53.4401 -53.4287 -53.4210 -53.4200
   -53.4182 -53.4163 -53.4152 -53.4084 -53.4070 -53.3964 -53.3901 -53.3852
   -53.3814 -53.3641 -53.3597 -53.3591 -53.3538 -53.3527 -53.3446 -53.3433
   -53.3238 -53.3098 -53.2942 -53.2808 -53.2562 -53.2553 -53.2497 -53.2417
   -53.2404 -53.2377 -53.2340 -53.2311 -53.2272 -53.2122 -53.2083 -53.2060
   -53.2039 -53.2018 -53.2002 -53.1963 -53.1939 -53.1934 -53.1871 -53.1769
   -53.1764 -53.1722 -53.1709 -53.1666 -53.1594 -53.1591 -53.1560 -53.1548
   -53.1479 -53.1450 -53.1413 -53.1325 -53.1296 -53.1258 -53.1226 -53.1043
   -53.0978 -53.0227 -53.0159 -52.9970 -52.9884 -52.9644 -52.9628 -52.9578
   -52.9566 -52.9532 -52.9398 -52.9349 -52.9288 -52.9262 -52.9205 -52.9042
   -52.9003 -52.8831 -52.8826 -52.8708 -52.8700 -52.8678 -52.8672 -52.8648
   -52.8625 -52.8614 -52.8564 -52.8545 -52.8524 -52.8493 -52.8479 -52.8389
   -26.4954 -24.5017 -21.7701 -21.5591 -16.7371 -14.1785 -12.1139 -10.7347
    -9.3734  -9.2922  -8.9928  -8.6256  -8.5825  -8.5711  -8.1251  -7.9881
    -7.6434  -7.6340  -7.5017  -7.0671  -7.0556  -6.8213  -6.7690  -6.7564
    -6.6115  -6.5315  -6.5289  -6.5246  -6.5056  -6.4185  -6.4033  -6.3453
    -6.3374  -6.3256  -6.3245  -6.2647  -6.1758  -6.1676  -6.1595  -6.1543
    -6.1391  -6.1315  -5.7613  -5.7561  -5.7509  -5.7427  -5.7396  -5.6280
    -5.6073  -5.5957  -5.5910  -5.5673  -5.5490  -5.5264  -5.5217  -5.3256
    -5.3123  -5.2340  -5.2277  -5.2225  -5.2202  -5.1954  -5.1761  -4.9299
    -4.7694  -4.7538  -4.6077  -4.5775  -4.4744  -4.4099  -4.3744  -4.3677
    -4.3651  -4.3577  -4.3450  -4.3317  -4.2644  -4.2521  -4.2299  -4.2257
    -4.2194  -4.2128  -4.1936  -4.1911  -4.1762  -4.0873  -4.0646  -4.0603
    -4.0500  -4.0459  -4.0263  -4.0225  -4.0204  -4.0082  -3.9372  -3.9147
    -3.8742  -3.7834  -3.7809  -3.7440  -3.7049  -3.5778  -3.5616  -3.4730
    -3.4657  -3.4397  -3.4279  -3.4204  -3.3981  -3.3816  -3.3676  -3.3578
    -3.3549  -3.3189  -3.3145  -3.1554  -3.0043  -2.9912  -2.9818  -2.9737
    -2.9638  -2.9306  -2.9044  -2.8991  -2.8851  -2.8749  -2.8392  -2.7412
    -2.7278  -2.7137  -2.7106  -2.6938  -2.6871  -2.6350  -2.6321  -2.5233
    -2.5201  -2.4476  -2.4381  -2.4310  -2.4148  -2.3945  -2.3797  -2.2023
    -2.1900  -2.1768  -2.1629  -2.1440  -2.1378  -2.0697  -2.0201  -2.0068
    -2.0037  -1.8556  -1.8478  -1.6207  -1.6174  -1.6074  -1.6038  -1.5888
    -1.5877  -1.5834  -1.5809  -1.5015  -1.4958  -1.4897  -1.4885  -1.4542
    -1.4516  -1.4503  -1.4400  -1.3708  -1.3694  -1.2991  -1.2894  -1.2882
    -1.2457  -1.2191  -1.1986  -1.1665  -1.1551  -1.1529  -1.1161  -1.0287
    -1.0210  -0.9240  -0.9084  -0.8981  -0.8877  -0.8481  -0.8469  -0.8425
    -0.8205  -0.7086  -0.7025

          k =-0.0450-0.0260 0.0000 ( 94050 PWs)   bands (ev):

   -53.4731 -53.4624 -53.4472 -53.4456 -53.4382 -53.4306 -53.4226 -53.4201
   -53.4173 -53.4164 -53.4146 -53.4090 -53.4060 -53.3965 -53.3899 -53.3868
   -53.3803 -53.3645 -53.3599 -53.3577 -53.3543 -53.3529 -53.3441 -53.3425
   -53.3247 -53.3096 -53.2954 -53.2805 -53.2579 -53.2548 -53.2492 -53.2424
   -53.2407 -53.2367 -53.2336 -53.2290 -53.2275 -53.2127 -53.2080 -53.2052
   -53.2048 -53.2010 -53.2008 -53.1968 -53.1949 -53.1924 -53.1897 -53.1767
   -53.1758 -53.1706 -53.1696 -53.1660 -53.1612 -53.1588 -53.1560 -53.1543
   -53.1485 -53.1458 -53.1417 -53.1324 -53.1282 -53.1261 -53.1231 -53.1024
   -53.0996 -53.0232 -53.0152 -52.9966 -52.9894 -52.9640 -52.9623 -52.9578
   -52.9568 -52.9529 -52.9417 -52.9328 -52.9322 -52.9231 -52.9198 -52.9040
   -52.9028 -52.8827 -52.8791 -52.8746 -52.8696 -52.8686 -52.8676 -52.8630
   -52.8627 -52.8614 -52.8559 -52.8543 -52.8524 -52.8499 -52.8480 -52.8388
   -26.4954 -24.5017 -21.7701 -21.5591 -16.7371 -14.1785 -12.1139 -10.7347
    -9.3734  -9.2922  -8.9928  -8.6221  -8.5860  -8.5715  -8.1248  -7.9873
    -7.6469  -7.6316  -7.5015  -7.0654  -7.0568  -6.8203  -6.7692  -6.7533
    -6.6146  -6.5326  -6.5302  -6.5284  -6.4995  -6.4215  -6.4147  -6.3372
    -6.3333  -6.3300  -6.3296  -6.2656  -6.1737  -6.1674  -6.1609  -6.1513
    -6.1357  -6.1278  -5.7632  -5.7535  -5.7464  -5.7432  -5.7332  -5.6262
    -5.6137  -5.5981  -5.5934  -5.5589  -5.5492  -5.5273  -5.5192  -5.3333
    -5.3112  -5.2454  -5.2297  -5.2222  -5.2176  -5.1909  -5.1751  -4.9323
    -4.7697  -4.7542  -4.5975  -4.5771  -4.4709  -4.4096  -4.3706  -4.3687
    -4.3644  -4.3559  -4.3479  -4.3361  -4.2586  -4.2429  -4.2338  -4.2255
    -4.2195  -4.2108  -4.1986  -4.1940  -4.1853  -4.0839  -4.0718  -4.0535
    -4.0515  -4.0467  -4.0260  -4.0239  -4.0200  -4.0066  -3.9389  -3.9166
    -3.8777  -3.7845  -3.7801  -3.7508  -3.7139  -3.5726  -3.5674  -3.4922
    -3.4668  -3.4302  -3.4278  -3.4048  -3.3984  -3.3827  -3.3682  -3.3576
    -3.3548  -3.3171  -3.3055  -3.1501  -3.0138  -2.9914  -2.9774  -2.9731
    -2.9656  -2.9281  -2.9035  -2.8992  -2.8857  -2.8720  -2.8422  -2.7442
    -2.7245  -2.7103  -2.7084  -2.6929  -2.6895  -2.6394  -2.6302  -2.5267
    -2.5184  -2.4446  -2.4384  -2.4300  -2.4221  -2.3864  -2.3810  -2.2041
    -2.1883  -2.1770  -2.1610  -2.1446  -2.1378  -2.0667  -2.0253  -2.0120
    -2.0029  -1.8513  -1.8486  -1.6197  -1.6160  -1.6122  -1.6017  -1.5892
    -1.5870  -1.5824  -1.5806  -1.4999  -1.4971  -1.4908  -1.4867  -1.4556
    -1.4527  -1.4492  -1.4408  -1.3715  -1.3674  -1.3037  -1.2911  -1.2871
    -1.2461  -1.2202  -1.1967  -1.1627  -1.1556  -1.1536  -1.1163  -1.0281
    -1.0194  -0.9232  -0.9090  -0.8985  -0.8887  -0.8467  -0.8463  -0.8448
    -0.8211  -0.7059  -0.7052

     the Fermi energy is    -0.9455 ev

!    total energy              =   -6934.23256079 Ry
     Harris-Foulkes estimate   =   -6934.23256121 Ry
     estimated scf accuracy    <       0.00000028 Ry

     The total energy is the sum of the following terms:

     one-electron contribution =  -62465.32690648 Ry
     hartree contribution      =   31281.41598960 Ry
     xc contribution           =   -1869.17430580 Ry
     ewald contribution        =   26118.99429576 Ry
[...]
   -53.5412 -53.5366 -53.5339 -53.5259 -53.5255 -53.5248 -53.5118 -53.4966
   -53.4910 -53.4893 -53.4783 -53.4747 -53.4569 -53.4531 -53.4457 -53.4193
   -53.4151 -53.4067 -53.3998 -53.3969 -53.3967 -53.3949 -53.3796 -53.3766
   -53.3363 -53.3300 -53.3263 -53.3217 -53.3213 -53.3196 -53.3180 -53.3131
   -53.3102 -53.3041 -53.3015 -53.2996 -53.2970 -53.2954 -53.2946 -53.2940
   -23.6230 -23.3631 -21.3381 -21.0373 -16.4051 -14.1206 -12.3574 -11.1373
    -9.5650  -9.4471  -8.5695  -8.1892  -8.1537  -8.1410  -8.0529  -7.9106
    -7.7793  -7.5851  -7.5830  -7.4992  -7.4754  -7.2798  -7.1630  -7.1625
    -7.1238  -7.0933  -7.0479  -7.0469  -6.9845  -6.7080  -6.6803  -6.6796
    -6.6489  -6.6480  -6.6193  -6.5407  -6.5405  -6.5156  -6.5152  -6.3563
    -6.3557  -6.3435  -6.2271  -6.2259  -6.1911  -6.1709  -6.1693  -5.9775
    -5.9771  -5.9602  -5.9596  -5.8722  -5.8671  -5.8659  -5.8588  -5.8410
    -5.8404  -5.7785  -5.7762  -5.6863  -5.6804  -5.6031  -5.3101  -5.3067
    -5.2314  -5.0985  -5.0081  -5.0071  -4.9232  -4.8677  -4.8670  -4.8641
    -4.7666  -4.6746  -4.6735  -4.6588  -4.6579  -4.6552  -4.6479  -4.6466
    -4.5932  -4.5717  -4.5705  -4.5573  -4.5568  -4.4888  -4.4491  -4.4487
    -4.4081  -4.4076  -4.3670  -4.3628  -4.3623  -4.3536  -4.3392  -4.3162
    -4.3147  -4.2472  -4.2469  -4.1665  -4.0255  -4.0220  -4.0197  -4.0185
    -3.9566  -3.9515  -3.9098  -3.9093  -3.8530  -3.8073  -3.7910  -3.7779
    -3.7351  -3.7339  -3.7135  -3.6949  -3.6917  -3.6417  -3.6056  -3.5734
    -3.5561  -3.5151  -3.5144  -3.4903  -3.4343  -3.4017  -3.4012  -3.3595
    -3.3592  -3.0712  -3.0709  -2.9867  -2.8825  -2.8726  -2.8069  -2.7849
    -2.7832  -2.7597  -2.7332  -2.7190  -2.6932  -2.5653  -2.5225  -2.4254
    -2.4207  -2.4173  -2.4033  -2.4013  -2.3985  -2.3463  -2.3421  -2.3188
    -2.3071  -2.2878  -2.2850  -2.2735  -2.2673  -2.2121  -2.2075  -2.2027
    -2.1318  -2.1134  -2.1115  -2.0522  -2.0479  -1.9374  -1.9370  -1.9368
    -1.9332  -1.8626  -1.7632  -1.6911  -1.6899  -1.6212  -1.4810  -1.4791
    -1.4529  -1.4518  -1.3619  -1.3557  -1.3487  -1.3318  -1.3298  -1.2603
    -1.2580  -1.2370  -1.2042  -1.2036  -1.1980  -1.1949  -0.9494  -0.9198
    -0.9193  -0.9098  -0.8883

          k = 0.0450-0.0260 0.0000 ( 94050 PWs)   bands (ev):

   -53.8559 -53.8548 -53.8544 -53.8541 -53.8323 -53.8305 -53.8252 -53.8243
   -53.8238 -53.8234 -53.8210 -53.8197 -53.8014 -53.7998 -53.7907 -53.7895
   -53.7727 -53.7724 -53.7715 -53.7708 -53.7537 -53.7527 -53.7521 -53.7514
   -53.7279 -53.7261 -53.6836 -53.6818 -53.6576 -53.6558 -53.6497 -53.6474
   -53.6468 -53.6464 -53.6448 -53.6435 -53.6121 -53.6120 -53.6109 -53.6102
   -53.6067 -53.6058 -53.6000 -53.5978 -53.5970 -53.5969 -53.5774 -53.5759
   -53.5704 -53.5699 -53.5693 -53.5684 -53.5639 -53.5626 -53.5579 -53.5574
   -53.5552 -53.5543 -53.5372 -53.5366 -53.5285 -53.5273 -53.5025 -53.5004
   -53.4997 -53.4989 -53.4806 -53.4767 -53.4429 -53.4360 -53.4354 -53.4343
   -53.4243 -53.4228 -53.4016 -53.3962 -53.3956 -53.3954 -53.3711 -53.3673
   -53.3408 -53.3365 -53.3283 -53.3209 -53.3202 -53.3200 -53.3126 -53.3107
   -53.3077 -53.3049 -53.3040 -53.3028 -53.2965 -53.2950 -53.2946 -53.2933
   -23.6230 -23.3631 -21.3381 -21.0373 -16.4051 -14.1206 -12.3574 -11.1373
    -9.4483  -9.1631  -9.1620  -8.2313  -8.2221  -8.1716  -8.0528  -7.7804
    -7.5155  -7.5136  -7.4822  -7.3219  -7.3203  -7.1411  -7.1287  -7.1283
    -7.1280  -7.1093  -6.9135  -6.9131  -6.8856  -6.8854  -6.8853  -6.8851
    -6.6837  -6.6833  -6.6831  -6.6827  -6.6228  -6.6160  -6.6116  -6.2511
    -6.2503  -6.2497  -6.2495  -6.2108  -6.2103  -6.2089  -6.2086  -6.1906
    -6.1596  -6.1590  -6.1578  -6.1569  -5.9183  -5.9164  -5.8629  -5.8102
    -5.8066  -5.8060  -5.8054  -5.7761  -5.7737  -5.6079  -5.2632  -5.2618
    -5.2323  -5.0887  -5.0857  -4.8116  -4.8106  -4.7686  -4.7626  -4.7608
    -4.7604  -4.7592  -4.7412  -4.7396  -4.6791  -4.6771  -4.6465  -4.6448
    -4.6442  -4.6437  -4.6199  -4.6190  -4.5618  -4.5606  -4.5324  -4.5306
    -4.5286  -4.5245  -4.4429  -4.4417  -4.4337  -4.4325  -4.2022  -4.2013
    -4.1992  -4.1964  -4.0481  -4.0473  -3.9909  -3.9854  -3.9838  -3.9834
    -3.9418  -3.9285  -3.9020  -3.9013  -3.8455  -3.8432  -3.7836  -3.7234
    -3.7185  -3.5734  -3.5308  -3.5294  -3.4801  -3.4793  -3.4786  -3.4779
    -3.4079  -3.4064  -3.3643  -3.3481  -3.1739  -3.1708  -3.1536  -3.1524
    -3.1515  -3.1505  -3.0918  -3.0908  -2.9043  -2.9024  -2.8690  -2.8676
    -2.8671  -2.8643  -2.8258  -2.8230  -2.7354  -2.5455  -2.5258  -2.5229
    -2.5190  -2.5031  -2.5022  -2.4522  -2.4151  -2.4033  -2.4024  -2.3387
    -2.2206  -2.2159  -2.2075  -1.9912  -1.9906  -1.9901  -1.9885  -1.8956
    -1.8928  -1.8926  -1.8923  -1.8138  -1.8138  -1.8136  -1.8093  -1.7983
    -1.7969  -1.7660  -1.7656  -1.7498  -1.7489  -1.6665  -1.6464  -1.6329
    -1.6251  -1.5372  -1.5356  -1.5033  -1.5021  -1.5015  -1.4977  -1.3477
    -1.3468  -1.2788  -1.2781  -1.2511  -1.2507  -1.1728  -1.1720  -1.1719
    -1.1677  -1.0849  -1.0848

          k =-0.0450-0.0260 0.0000 ( 94050 PWs)   bands (ev):

   -53.8558 -53.8549 -53.8545 -53.8540 -53.8321 -53.8308 -53.8251 -53.8242
   -53.8240 -53.8234 -53.8210 -53.8198 -53.8012 -53.8000 -53.7907 -53.7896
   -53.7728 -53.7723 -53.7715 -53.7709 -53.7535 -53.7528 -53.7522 -53.7515
   -53.7279 -53.7261 -53.6835 -53.6819 -53.6576 -53.6558 -53.6493 -53.6475
   -53.6470 -53.6466 -53.6447 -53.6436 -53.6122 -53.6119 -53.6110 -53.6103
   -53.6066 -53.6058 -53.5996 -53.5979 -53.5972 -53.5970 -53.5772 -53.5762
   -53.5704 -53.5699 -53.5693 -53.5685 -53.5638 -53.5627 -53.5580 -53.5574
   -53.5551 -53.5543 -53.5373 -53.5365 -53.5284 -53.5274 -53.5025 -53.5004
   -53.4997 -53.4989 -53.4804 -53.4768 -53.4429 -53.4359 -53.4351 -53.4349
   -53.4243 -53.4228 -53.4004 -53.3970 -53.3962 -53.3952 -53.3707 -53.3674
   -53.3412 -53.3364 -53.3272 -53.3217 -53.3209 -53.3200 -53.3122 -53.3105
   -53.3075 -53.3045 -53.3039 -53.3036 -53.2969 -53.2950 -53.2940 -53.2936
   -23.6230 -23.3631 -21.3381 -21.0373 -16.4051 -14.1206 -12.3574 -11.1373
    -9.4484  -9.1638  -9.1611  -8.2320  -8.2236  -8.1688  -8.0532  -7.7809
    -7.5153  -7.5137  -7.4817  -7.3214  -7.3212  -7.1413  -7.1287  -7.1283
    -7.1279  -7.1090  -6.9137  -6.9127  -6.8858  -6.8856  -6.8851  -6.8849
    -6.6839  -6.6837  -6.6829  -6.6825  -6.6236  -6.6157  -6.6112  -6.2509
    -6.2500  -6.2499  -6.2495  -6.2137  -6.2100  -6.2083  -6.2082  -6.1868
    -6.1610  -6.1592  -6.1587  -6.1572  -5.9179  -5.9166  -5.8625  -5.8099
    -5.8069  -5.8058  -5.8054  -5.7759  -5.7739  -5.6081  -5.2632  -5.2620
    -5.2328  -5.0883  -5.0848  -4.8115  -4.8108  -4.7680  -4.7623  -4.7617
    -4.7601  -4.7587  -4.7428  -4.7389  -4.6788  -4.6775  -4.6462  -4.6445
    -4.6443  -4.6440  -4.6198  -4.6190  -4.5620  -4.5607  -4.5318  -4.5305
    -4.5292  -4.5253  -4.4428  -4.4419  -4.4339  -4.4324  -4.2019  -4.2005
    -4.1997  -4.1978  -4.0482  -4.0471  -3.9862  -3.9858  -3.9843  -3.9837
    -3.9385  -3.9313  -3.9023  -3.9011  -3.8495  -3.8440  -3.7804  -3.7238
    -3.7195  -3.5734  -3.5310  -3.5292  -3.4797  -3.4790  -3.4786  -3.4779
    -3.4088  -3.4075  -3.3598  -3.3510  -3.1747  -3.1713  -3.1535  -3.1522
    -3.1510  -3.1502  -3.0917  -3.0915  -2.9090  -2.9011  -2.8706  -2.8679
    -2.8658  -2.8655  -2.8222  -2.8220  -2.7348  -2.5404  -2.5266  -2.5227
    -2.5202  -2.5033  -2.5019  -2.4502  -2.4128  -2.4036  -2.4022  -2.3451
    -2.2231  -2.2142  -2.2045  -1.9916  -1.9907  -1.9905  -1.9891  -1.8955
    -1.8932  -1.8924  -1.8919  -1.8143  -1.8126  -1.8122  -1.8113  -1.7983
    -1.7972  -1.7664  -1.7652  -1.7503  -1.7487  -1.6637  -1.6516  -1.6336
    -1.6247  -1.5378  -1.5348  -1.5031  -1.5021  -1.5016  -1.4969  -1.3481
    -1.3463  -1.2786  -1.2782  -1.2514  -1.2505  -1.1733  -1.1709  -1.1707
    -1.1700  -1.0850  -1.0848

          k =-0.0225 0.0390 0.0000 ( 93991 PWs)   bands (ev):

   -53.8664 -53.8504 -53.8499 -53.8443 -53.8441 -53.8342 -53.8224 -53.8211
   -53.8194 -53.8190 -53.8134 -53.8133 -53.8029 -53.8027 -53.7982 -53.7961
   -53.7950 -53.7757 -53.7745 -53.7742 -53.7515 -53.7504 -53.7497 -53.7145
   -53.7122 -53.7096 -53.7009 -53.6997 -53.6856 -53.6853 -53.6528 -53.6389
   -53.6385 -53.6331 -53.6325 -53.6207 -53.6196 -53.6140 -53.6103 -53.6101
   -53.6057 -53.6053 -53.6019 -53.5925 -53.5921 -53.5873 -53.5866 -53.5861
   -53.5858 -53.5780 -53.5692 -53.5680 -53.5623 -53.5572 -53.5566 -53.5498
   -53.5491 -53.5485 -53.5464 -53.5463 -53.5326 -53.5099 -53.5098 -53.5018
   -53.4976 -53.4946 -53.4923 -53.4613 -53.4573 -53.4392 -53.4331 -53.4310
   -53.4170 -53.4142 -53.4117 -53.4099 -53.3899 -53.3830 -53.3818 -53.3616
   -53.3447 -53.3326 -53.3289 -53.3259 -53.3185 -53.3147 -53.3133 -53.3127
   -53.3079 -53.3067 -53.3041 -53.2996 -53.2983 -53.2949 -53.2941 -53.2934
   -23.6230 -23.3631 -21.3381 -21.0373 -16.4051 -14.1206 -12.3574 -11.1373
    -9.4484  -9.2922  -8.7900  -8.7863  -8.1771  -8.0545  -7.7839  -7.6380
    -7.5959  -7.5944  -7.4810  -7.2786  -7.2778  -7.1902  -7.1896  -7.1565
    -7.1519  -7.1192  -7.0367  -6.9356  -6.9353  -6.9032  -6.9024  -6.8619
    -6.7712  -6.6919  -6.6917  -6.6200  -6.4893  -6.4886  -6.4810  -6.4809
    -6.3164  -6.3162  -6.2639  -6.2361  -6.2346  -6.1895  -6.1705  -6.1692
    -6.0575  -6.0571  -6.0524  -6.0503  -6.0400  -6.0034  -6.0022  -5.8617
    -5.7994  -5.7096  -5.6902  -5.6552  -5.6116  -5.5207  -5.5150  -5.2360
    -5.1748  -5.1710  -5.1618  -4.9954  -4.9948  -4.8485  -4.8475  -4.7896
    -4.7884  -4.7877  -4.7670  -4.7616  -4.7235  -4.6832  -4.6799  -4.6519
    -4.6508  -4.6486  -4.6466  -4.6447  -4.6440  -4.5399  -4.5216  -4.5183
    -4.5020  -4.5009  -4.3618  -4.3302  -4.3197  -4.3182  -4.1810  -4.1744
    -4.1301  -4.0886  -4.0396  -4.0124  -3.9989  -3.9953  -3.9761  -3.8281
    -3.7862  -3.7836  -3.7779  -3.7639  -3.7435  -3.7338  -3.6915  -3.6888
    -3.6452  -3.6441  -3.5979  -3.5967  -3.5871  -3.5734  -3.5122  -3.5058
    -3.4407  -3.4378  -3.4186  -3.4172  -3.2915  -3.2898  -3.2852  -3.2830
    -3.2454  -3.2419  -3.2382  -3.0425  -3.0405  -2.9612  -2.8517  -2.8479
    -2.7415  -2.6808  -2.6778  -2.6686  -2.6657  -2.6553  -2.5778  -2.5027
    -2.4780  -2.4444  -2.4433  -2.4216  -2.3924  -2.3744  -2.3187  -2.3052
    -2.2715  -2.2610  -2.2082  -2.1691  -2.1672  -2.0962  -2.0899  -1.8999
    -1.8975  -1.8963  -1.8819  -1.8809  -1.8724  -1.8699  -1.8681  -1.7960
    -1.7954  -1.7937  -1.7573  -1.7556  -1.6711  -1.6697  -1.6282  -1.6257
    -1.5987  -1.5905  -1.5645  -1.5300  -1.3999  -1.3982  -1.3945  -1.3659
    -1.3643  -1.3288  -1.3247  -1.2465  -1.2450  -1.2230  -1.2143  -1.2098
    -1.2088  -1.1264  -1.1259

          k = 0.0450-0.0000 0.0000 ( 93991 PWs)   bands (ev):

   -53.8664 -53.8504 -53.8499 -53.8443 -53.8441 -53.8342 -53.8224 -53.8211
   -53.8194 -53.8191 -53.8134 -53.8134 -53.8029 -53.8027 -53.7982 -53.7961
   -53.7950 -53.7757 -53.7744 -53.7743 -53.7515 -53.7503 -53.7498 -53.7143
   -53.7125 -53.7095 -53.7007 -53.7000 -53.6856 -53.6853 -53.6528 -53.6389
   -53.6385 -53.6331 -53.6325 -53.6205 -53.6197 -53.6140 -53.6103 -53.6100
   -53.6058 -53.6053 -53.6019 -53.5925 -53.5921 -53.5872 -53.5866 -53.5861
   -53.5859 -53.5780 -53.5690 -53.5682 -53.5623 -53.5572 -53.5566 -53.5499
   -53.5491 -53.5484 -53.5464 -53.5463 -53.5326 -53.5099 -53.5098 -53.5018
   -53.4976 -53.4947 -53.4922 -53.4613 -53.4572 -53.4391 -53.4333 -53.4309
   -53.4171 -53.4142 -53.4115 -53.4101 -53.3898 -53.3831 -53.3818 -53.3617
   -53.3446 -53.3326 -53.3288 -53.3261 -53.3184 -53.3147 -53.3134 -53.3126
   -53.3077 -53.3067 -53.3043 -53.2996 -53.2983 -53.2949 -53.2941 -53.2934
   -23.6230 -23.3631 -21.3381 -21.0373 -16.4051 -14.1206 -12.3574 -11.1372
    -9.4484  -9.2921  -8.7898  -8.7865  -8.1771  -8.0545  -7.7837  -7.6380
    -7.5960  -7.5942  -7.4819  -7.2781  -7.2779  -7.1900  -7.1896  -7.1563
    -7.1521  -7.1192  -7.0365  -6.9358  -6.9355  -6.9031  -6.9024  -6.8618
    -6.7714  -6.6918  -6.6917  -6.6202  -6.4893  -6.4886  -6.4813  -6.4806
    -6.3165  -6.3160  -6.2638  -6.2358  -6.2351  -6.1890  -6.1706  -6.1695
    -6.0577  -6.0572  -6.0514  -6.0504  -6.0401  -6.0036  -6.0025  -5.8617
    -5.7993  -5.7099  -5.6897  -5.6558  -5.6099  -5.5207  -5.5164  -5.2354
    -5.1753  -5.1727  -5.1606  -4.9954  -4.9948  -4.8485  -4.8472  -4.7898
    -4.7889  -4.7872  -4.7670  -4.7616  -4.7236  -4.6817  -4.6805  -4.6517
    -4.6511  -4.6477  -4.6467  -4.6453  -4.6443  -4.5400  -4.5216  -4.5183
    -4.5023  -4.5009  -4.3612  -4.3298  -4.3191  -4.3181  -4.1794  -4.1765
    -4.1300  -4.0890  -4.0402  -4.0133  -3.9994  -3.9965  -3.9761  -3.8233
    -3.7864  -3.7825  -3.7779  -3.7572  -3.7443  -3.7436  -3.6920  -3.6902
    -3.6453  -3.6435  -3.5974  -3.5956  -3.5869  -3.5736  -3.5133  -3.5049
    -3.4412  -3.4367  -3.4181  -3.4178  -3.2922  -3.2901  -3.2840  -3.2832
    -3.2450  -3.2419  -3.2383  -3.0425  -3.0409  -2.9609  -2.8527  -2.8476
    -2.7411  -2.6809  -2.6778  -2.6693  -2.6650  -2.6549  -2.5775  -2.5026
    -2.4783  -2.4452  -2.4432  -2.4224  -2.3927  -2.3706  -2.3193  -2.3058
    -2.2710  -2.2635  -2.2079  -2.1688  -2.1670  -2.0956  -2.0905  -1.9000
    -1.8973  -1.8965  -1.8818  -1.8810  -1.8722  -1.8699  -1.8687  -1.7959
    -1.7955  -1.7937  -1.7575  -1.7556  -1.6708  -1.6699  -1.6282  -1.6256
    -1.5996  -1.5888  -1.5646  -1.5301  -1.3995  -1.3984  -1.3949  -1.3657
    -1.3645  -1.3286  -1.3246  -1.2463  -1.2451  -1.2228  -1.2152  -1.2098
    -1.2087  -1.1265  -1.1257

     the Fermi energy is    -1.2855 ev

!    total energy              =   -6934.49592542 Ry
     Harris-Foulkes estimate   =   -6934.49592551 Ry
     estimated scf accuracy    <       0.00000017 Ry

     The total energy is the sum of the following terms:

     one-electron contribution =  -62615.31970683 Ry
     hartree contribution      =   31349.42145361 Ry
     xc contribution           =   -1869.43391407 Ry
     ewald contribution        =   26200.98855572 Ry
     smearing contrib. (-TS)   =      -0.15231385 Ry

     convergence has been achieved in  18 iterations

     Forces acting on atoms (Ry/au):


     negative rho (up, down):  5.646E+00 0.000E+00
     atom    1 type  1   force =    -0.00006450    0.00005714   -0.01965774
     atom    2 type  1   force =    -0.00004726    0.00011451    0.01979929
     atom    3 type  1   force =    -0.00013582    0.00027445   -0.01985463
     atom    4 type  1   force =    -0.00016161   -0.00081819    0.01960165
     atom    5 type  1   force =     0.00006017   -0.00031440   -0.02025919
     atom    6 type  1   force =    -0.00112125    0.00024943    0.01974623
     atom    7 type  1   force =    -0.00002200   -0.00013668   -0.01976595
     atom    8 type  1   force =     0.00015332   -0.00010059    0.01998319
     atom    9 type  1   force =     0.00004262    0.00007584   -0.01977502
     atom   10 type  1   force =     0.00003045    0.00003833    0.01988409
     atom   11 type  1   force =    -0.00004675   -0.00040357   -0.01979126
     atom   12 type  1   force =     0.00018858   -0.00080680    0.02002570
     atom   13 type  1   force =     0.00054450    0.00024423   -0.01945996
     atom   14 type  1   force =     0.00013283    0.00018458    0.02114101
     atom   15 type  1   force =    -0.00032266    0.00014362   -0.01980356
     atom   16 type  1   force =    -0.00092505    0.00111453    0.01891152
     atom   17 type  1   force =     0.00035502    0.00012957   -0.02006206
     atom   18 type  1   force =    -0.00010749   -0.00012121    0.01959787
     atom   19 type  1   force =     0.00012504    0.00020164   -0.01998151
     atom   20 type  1   force =    -0.00001350   -0.00002356    0.01973509
     atom   21 type  1   force =    -0.00060037    0.00035581   -0.01901391
     atom   22 type  1   force =     0.00071199    0.00030697    0.01964145
     atom   23 type  1   force =     0.00005270   -0.00036097   -0.01986856
     atom   24 type  1   force =     0.00063446    0.00053876    0.01913032
     atom   25 type  1   force =    -0.00032595   -0.00009162   -0.01964976
     atom   26 type  1   force =     0.00013470   -0.00000118    0.01975018
     atom   27 type  1   force =     0.00004761   -0.00002242   -0.01979176
     atom   28 type  1   force =     0.00000611    0.00013089    0.01953196
     atom   29 type  1   force =    -0.00017905   -0.00014262   -0.01996884
     atom   30 type  1   force =     0.00004091   -0.00003771    0.01974362
     atom   31 type  1   force =     0.00033076    0.00018637   -0.01954920
     atom   32 type  1   force =    -0.00005480   -0.00004205    0.01971706
     atom   33 type  2   force =    -0.00020465    0.00004818   -0.00133161
     atom   34 type  2   force =    -0.00066374   -0.00003330   -0.00017071
     atom   35 type  2   force =     0.00009373    0.00000698    0.00081479
     atom   36 type  2   force =     0.00067298   -0.00070492   -0.00014255
     atom   37 type  3   force =    -0.00030591    0.00051216   -0.00021362
     atom   38 type  3   force =     0.00013111    0.00021029    0.00014980
     atom   39 type  3   force =     0.00020803    0.00078779    0.00016010
     atom   40 type  3   force =     0.00015799   -0.00045216    0.00033841
     atom   41 type  3   force =    -0.00021231   -0.00028629   -0.00012118
     atom   42 type  4   force =     0.00021232   -0.00006145   -0.00033804
     atom   43 type  4   force =    -0.00032588   -0.00070199   -0.00063353
     atom   44 type  4   force =     0.00056679   -0.00033089    0.00046446
     atom   45 type  4   force =     0.00038537    0.00023632    0.00104816
     atom   46 type  4   force =     0.00023325   -0.00013672   -0.00054989
     atom   47 type  4   force =    -0.00041280   -0.00001711    0.00083811

     Total force =     0.111858     Total SCF correction =     0.000788
 !ASE

     Writing output data file calc.save
 
     init_run     :    117.62s CPU    130.90s WALL (       1 calls)
     electrons    : 159151.65s CPU 160597.05s WALL (      20 calls)
     update_pot   :    108.08s CPU    111.14s WALL (      19 calls)
     forces       :   1371.16s CPU   1372.18s WALL (      20 calls)

     Called by init_run:
     wfcinit      :     89.14s CPU    102.12s WALL (       1 calls)
     potinit      :      2.39s CPU      2.48s WALL (       1 calls)

     Called by electrons:
     c_bands      : 106704.01s CPU 107714.98s WALL (     677 calls)
     sum_band     :  29116.56s CPU  29147.31s WALL (     677 calls)
     v_of_rho     :    289.97s CPU    320.30s WALL (     697 calls)
     newd         :  14708.20s CPU  14720.26s WALL (     697 calls)
     mix_rho      :   8712.88s CPU   9071.86s WALL (     677 calls)

     Called by c_bands:
     init_us_2    :    509.80s CPU    511.46s WALL (   13750 calls)
     cegterg      : 103821.21s CPU 104740.34s WALL (    6770 calls)

     Called by *egterg:
     h_psi        :  75449.93s CPU  75506.22s WALL (   30631 calls)
     s_psi        :   5292.47s CPU   5291.97s WALL (   30631 calls)
     g_psi        :    102.42s CPU    102.45s WALL (   23851 calls)
     cdiaghg      :   6947.81s CPU   6946.32s WALL (   30431 calls)

     Called by h_psi:
     add_vuspsi   :   5272.29s CPU   5270.86s WALL (   30631 calls)

     General routines
     calbec       :   7799.01s CPU   7809.08s WALL (   37601 calls)
     fft          :    534.92s CPU    566.99s WALL (   11311 calls)
     ffts         :   4861.75s CPU   5213.84s WALL (  589847 calls)
     fftw         :  67504.80s CPU  67549.20s WALL (10582820 calls)
     interpolate  :     59.91s CPU     62.84s WALL (    1374 calls)
     davcio       :      0.01s CPU      8.51s WALL (      10 calls)
 
     Parallel routines
     fft_scatter  :  27919.21s CPU  28240.10s WALL (11183978 calls)
 
     PWSCF        :     1d   20h45m CPU        1d   21h10m WALL

 
   This run was terminated on:  15:19: 5   8Apr2019            

=------------------------------------------------------------------------------=
   JOB DONE.
=------------------------------------------------------------------------------=
