  python dir          : /gpfs/pace1/project/chbe-medford/medford-share/gits/frozen/ben_espresso_8_24_2017/espresso
  espresso dir        : /nv/hp22/amedford6/medford-shared/builds/espresso/5.1.r11289-pybeef/intel-16.0+mvapich2-2.2+mkl-11.3/espresso-5.1.r11289-pybeef/bin
  pseudo dir          : /gpfs/pace1/project/chbe-medford/medford-share/data/pseudos/SSSP_eff_PBE
  ase-espresso py git : GITVERSION



     Program PWSCF v.5.1rc2 starts on  9Feb2019 at 22:49:40 

     This program is part of the open-source Quantum ESPRESSO suite
     for quantum simulation of materials; please cite
         "P. Giannozzi et al., J. Phys.:Condens. Matter 21 395502 (2009);
          URL http://www.quantum-espresso.org", 
     in publications or presentations arising from this work. More details at
     http://www.quantum-espresso.org/quote

     Parallel version (MPI), running on    12 processors
     R & G space division:  proc/nbgrp/npool/nimage =      12
     Reading input from pw.inp
     Message from routine read_cards :
     DEPRECATED: no units specified in CELL_PARAMETERS card

     Current dimensions of program PWSCF are:
     Max number of different atomic species (ntypx) = 10
     Max number of k-points (npk) =  40000
     Max angular momentum in pseudopotentials (lmaxx) =  3

     IMPORTANT: XC functional enforced from input :
     Exchange-correlation      = PBE ( 1  4  3  4 0)
     Any further DFT definition will be discarded
     Please, verify this is what you really want

               file Rh.UPF: wavefunction(s)  4S 5S 4D renormalized

     Subspace diagonalization in iterative solution of the eigenvalue problem:
     a serial algorithm will be used

 
     Parallelization info
     --------------------
     sticks:   dense  smooth     PW     G-vecs:    dense   smooth      PW
     Min         783     384    101               171819    58733    7979
     Max         784     385    102               171832    58748    7990
     Sum        9403    4615   1213              2061923   704887   95807
 


     bravais-lattice index     =            0
     lattice parameter (alat)  =       1.8897  a.u.
     unit-cell volume          =   20303.1417 (a.u.)^3
     number of atoms/cell      =           47
     number of atomic types    =            4
     number of electrons       =       594.00
     number of Kohn-Sham states=          307
     kinetic-energy cutoff     =      40.4243  Ry
     charge density cutoff     =     330.7439  Ry
     convergence threshold     =      7.3E-07
     mixing beta               =       0.2000
     number of iterations used =            8  local-TF  mixing
     Exchange-correlation      = PBE ( 1  4  3  4 0)
     nstep                     =           50


     celldm(1)=   1.889726  celldm(2)=   0.000000  celldm(3)=   0.000000
     celldm(4)=   0.000000  celldm(5)=   0.000000  celldm(6)=   0.000000

     crystal axes: (cart. coord. in units of alat)
               a(1) = (  10.757640   0.000000   0.000000 )  
               a(2) = (  -5.378820   9.316389   0.000000 )  
               a(3) = (   0.000000   0.000000  30.019401 )  

     reciprocal axes: (cart. coord. in units 2 pi/alat)
               b(1) = (  0.092957  0.053669  0.000000 )  
               b(2) = (  0.000000  0.107338  0.000000 )  
               b(3) = (  0.000000  0.000000  0.033312 )  


     PseudoPot. # 1 for Rh read from file:
     /gpfs/pace1/project/chbe-medford/medford-share/data/pseudos/SSSP_eff_PBE/Rh.UPF
     MD5 check sum: ceb12254454c5aaeede670f925ab9aba
     Pseudo is Projector augmented-wave + core cor, Zval = 17.0
     Generated using "atomic" code by A. Dal Corso  v.5.1
     Shape of augmentation charge: PSQ
     Using radial grid of 1233 points,  6 beta functions with: 
                l(1) =   0
                l(2) =   0
                l(3) =   1
                l(4) =   1
                l(5) =   2
                l(6) =   2
     Q(r) pseudized with 0 coefficients 


     PseudoPot. # 2 for O  read from file:
     /gpfs/pace1/project/chbe-medford/medford-share/data/pseudos/SSSP_eff_PBE/O.UPF
     MD5 check sum: 734c27235a0248c51dbae37a1fbe46ec
     Pseudo is Ultrasoft + core correction, Zval =  6.0
     Generated by new atomic code, or converted to UPF format
     Using radial grid of  737 points,  5 beta functions with: 
                l(1) =   0
                l(2) =   0
                l(3) =   1
                l(4) =   1
                l(5) =   2
     Q(r) pseudized with  8 coefficients,  rinner =    0.900   0.900   0.900
                                                       0.900   0.900

     PseudoPot. # 3 for C  read from file:
     /gpfs/pace1/project/chbe-medford/medford-share/data/pseudos/SSSP_eff_PBE/C.UPF
     MD5 check sum: d1aef80898a10debaa0f26306b886e00
     Pseudo is Ultrasoft + core correction, Zval =  4.0
     Generated by new atomic code, or converted to UPF format
     Using radial grid of  721 points,  4 beta functions with: 
                l(1) =   0
                l(2) =   0
                l(3) =   1
                l(4) =   1
     Q(r) pseudized with  8 coefficients,  rinner =    1.100   1.100   1.100


     PseudoPot. # 4 for  H read from file:
     /gpfs/pace1/project/chbe-medford/medford-share/data/pseudos/SSSP_eff_PBE/H.UPF
     MD5 check sum: 36633979392af7100e6f6632747262d3
     Pseudo is Ultrasoft, Zval =  1.0
     Generated using "atomic" code by A. Dal Corso  v.5.0.99 svn rev. 10869
     Using radial grid of  929 points,  2 beta functions with: 
                l(1) =   0
                l(2) =   0
     Q(r) pseudized with 0 coefficients 


     atomic species   valence    mass     pseudopotential
        Rh1           17.00   102.90550     Rh( 1.00)
        O1             6.00    15.99940     O ( 1.00)
        C1             4.00    12.01100     C ( 1.00)
        H1             1.00     1.00794      H( 1.00)

     No symmetry found



   Cartesian axes

     site n.     atom                  positions (alat units)
         1           Rh1 tau(   1) = (   0.0000000   0.0000000  10.0000000  )
         2           Rh1 tau(   2) = (   1.3447050   0.7763658  12.1958940  )
         3           Rh1 tau(   3) = (  -1.3447050   2.3290973  10.0000000  )
         4           Rh1 tau(   4) = (   0.0000000   3.1054631  12.1958940  )
         5           Rh1 tau(   5) = (  -2.6894099   4.6581946  10.0000000  )
         6           Rh1 tau(   6) = (  -1.3447050   5.4345604  12.1958940  )
         7           Rh1 tau(   7) = (  -4.0341149   6.9872920  10.0000000  )
         8           Rh1 tau(   8) = (  -2.6894099   7.7636577  12.1958940  )
         9           Rh1 tau(   9) = (   2.6894099   0.0000000  10.0000000  )
        10           Rh1 tau(  10) = (   4.0341149   0.7763658  12.1958940  )
        11           Rh1 tau(  11) = (   1.3447050   2.3290973  10.0000000  )
        12           Rh1 tau(  12) = (   2.6894099   3.1054631  12.1958940  )
        13           Rh1 tau(  13) = (   0.0000000   4.6581946  10.0000000  )
        14           Rh1 tau(  14) = (   1.3447050   5.4345604  12.1958940  )
        15           Rh1 tau(  15) = (  -1.3447050   6.9872920  10.0000000  )
        16           Rh1 tau(  16) = (   0.0000000   7.7636577  12.1958940  )
        17           Rh1 tau(  17) = (   5.3788199   0.0000000  10.0000000  )
        18           Rh1 tau(  18) = (   6.7235248   0.7763658  12.1958940  )
        19           Rh1 tau(  19) = (   4.0341149   2.3290973  10.0000000  )
        20           Rh1 tau(  20) = (   5.3788199   3.1054631  12.1958940  )
        21           Rh1 tau(  21) = (   2.6894099   4.6581946  10.0000000  )
        22           Rh1 tau(  22) = (   4.0341149   5.4345604  12.1958940  )
        23           Rh1 tau(  23) = (   1.3447050   6.9872920  10.0000000  )
        24           Rh1 tau(  24) = (   2.6894099   7.7636577  12.1958940  )
        25           Rh1 tau(  25) = (   8.0682298   0.0000000  10.0000000  )
        26           Rh1 tau(  26) = (   9.4129348   0.7763658  12.1958940  )
        27           Rh1 tau(  27) = (   6.7235248   2.3290973  10.0000000  )
        28           Rh1 tau(  28) = (   8.0682298   3.1054631  12.1958940  )
        29           Rh1 tau(  29) = (   5.3788199   4.6581946  10.0000000  )
        30           Rh1 tau(  30) = (   6.7235248   5.4345604  12.1958940  )
        31           Rh1 tau(  31) = (   4.0341149   6.9872920  10.0000000  )
        32           Rh1 tau(  32) = (   5.3788199   7.7636577  12.1958940  )
        33           O1  tau(  33) = (   1.3450000   5.4350000  14.6958940  )
        34           O1  tau(  34) = (   3.3580351   6.7145000  18.2711730  )
        35           O1  tau(  35) = (   0.5242300   5.0821000  16.7880786  )
        36           O1  tau(  36) = (   3.4242155   5.2679000  20.0194009  )
        37           C1  tau(  37) = (   2.9136743   4.8181000  16.3347176  )
        38           C1  tau(  38) = (   3.0812348   4.4426000  17.7805409  )
        39           C1  tau(  39) = (   1.4654576   5.1087000  16.0093326  )
        40           C1  tau(  40) = (   3.3030857   5.4796000  18.8223979  )
        41           C1  tau(  41) = (   3.0091491   3.1698000  18.1992848  )
        42           H1  tau(  42) = (   3.5272465   5.6863000  16.0736558  )
        43           H1  tau(  43) = (   3.2377627   3.9870000  15.6956553  )
        44           H1  tau(  44) = (   2.8350862   2.3632000  17.4937991  )
        45           H1  tau(  45) = (   3.1175197   2.8876000  19.2411881  )
        46           H1  tau(  46) = (   0.4165546   5.6387000  14.4537795  )
        47           H1  tau(  47) = (   3.5049563   7.4117000  18.9454481  )

     number of k points=     4  Fermi-Dirac smearing, width (Ry)=  0.0073
                       cart. coord. in units 2pi/alat
        k(    1) = (   0.0000000   0.0000000   0.0000000), wk =   0.5000000
        k(    2) = (   0.0000000  -0.0536689   0.0000000), wk =   0.5000000
        k(    3) = (   0.0464786  -0.0268344   0.0000000), wk =   0.5000000
        k(    4) = (  -0.0464786  -0.0268344   0.0000000), wk =   0.5000000

     Dense  grid:  2061923 G-vectors     FFT dimensions: ( 120, 120, 360)

     Smooth grid:   704887 G-vectors     FFT dimensions: (  90,  90, 240)

     Largest allocated arrays     est. size (Mb)     dimensions
        Kohn-Sham Wavefunctions        34.76 Mb     (    7420,  307)
        NL pseudopotentials            76.99 Mb     (    7420,  680)
        Each V/rho on FFT grid          6.59 Mb     (  432000)
        Each G-vector array             1.31 Mb     (  171832)
        G-vector shells                 0.42 Mb     (   54959)
     Largest temporary arrays     est. size (Mb)     dimensions
        Auxiliary wavefunctions       139.03 Mb     (    7420, 1228)
        Each subspace H/S matrix       23.01 Mb     (    1228, 1228)
        Each <psi_i|beta_j> matrix      3.19 Mb     (     680,  307)
        Arrays for rho mixing          52.73 Mb     (  432000,    8)

     Check: negative/imaginary core charge=   -0.000001    0.000000

     Initial potential from superposition of free atoms
     Check: negative starting charge=   -0.062008

     starting charge  593.98406, renormalised to  594.00000

     negative rho (up, down):  6.201E-02 0.000E+00
     Starting wfc are  362 randomized atomic wfcs
     Checking if some PAW data can be deallocated... 

     total cpu time spent up to now is       57.8 secs

     per-process dynamical memory:   405.1 Mb

     Self-consistent Calculation

     iteration #  1     ecut=    40.42 Ry     beta=0.20
     Davidson diagonalization with overlap
     ethr =  1.00E-02,  avg # of iterations =  2.8

     negative rho (up, down):  4.616E-02 0.000E+00

     total cpu time spent up to now is      181.0 secs

     total energy              =  -15237.27463057 Ry
     Harris-Foulkes estimate   =  -15237.76669667 Ry
     estimated scf accuracy    <       6.34934761 Ry

     iteration #  2     ecut=    40.42 Ry     beta=0.20
     Davidson diagonalization with overlap
     ethr =  1.07E-03,  avg # of iterations =  3.0

     negative rho (up, down):  2.520E-02 0.000E+00

     total cpu time spent up to now is      287.1 secs

     total energy              =  -15236.04638709 Ry
     Harris-Foulkes estimate   =  -15237.44393250 Ry
     estimated scf accuracy    <       4.59382675 Ry

     iteration #  3     ecut=    40.42 Ry     beta=0.20
     Davidson diagonalization with overlap
     ethr =  7.73E-04,  avg # of iterations =  4.2

     negative rho (up, down):  2.183E-02 0.000E+00

     total cpu time spent up to now is      405.4 secs

     total energy              =  -15236.52175264 Ry
     Harris-Foulkes estimate   =  -15236.60112947 Ry
     estimated scf accuracy    <       1.12759563 Ry

     iteration #  4     ecut=    40.42 Ry     beta=0.20
     Davidson diagonalization with overlap
     ethr =  1.90E-04,  avg # of iterations =  2.0

     negative rho (up, down):  1.546E-02 0.000E+00

     total cpu time spent up to now is      510.0 secs

     total energy              =  -15236.39323730 Ry
     Harris-Foulkes estimate   =  -15236.54474013 Ry
     estimated scf accuracy    <       0.67810805 Ry

     iteration #  5     ecut=    40.42 Ry     beta=0.20
     Davidson diagonalization with overlap
     ethr =  1.14E-04,  avg # of iterations =  3.8

     negative rho (up, down):  1.241E-02 0.000E+00

     total cpu time spent up to now is      624.6 secs

     total energy              =  -15236.40793038 Ry
     Harris-Foulkes estimate   =  -15236.43783981 Ry
     estimated scf accuracy    <       0.24304811 Ry

     iteration #  6     ecut=    40.42 Ry     beta=0.20
     Davidson diagonalization with overlap
     ethr =  4.09E-05,  avg # of iterations =  4.0

     negative rho (up, down):  7.446E-03 0.000E+00

     total cpu time spent up to now is      734.3 secs

     total energy              =  -15236.38421195 Ry
     Harris-Foulkes estimate   =  -15236.41823287 Ry
     estimated scf accuracy    <       0.17982790 Ry

     iteration #  7     ecut=    40.42 Ry     beta=0.20
     Davidson diagonalization with overlap
     ethr =  3.03E-05,  avg # of iterations =  3.0

     negative rho (up, down):  5.499E-03 0.000E+00

     total cpu time spent up to now is      844.7 secs

     total energy              =  -15236.37788183 Ry
     Harris-Foulkes estimate   =  -15236.39234533 Ry
     estimated scf accuracy    <       0.17482444 Ry

     iteration #  8     ecut=    40.42 Ry     beta=0.20
     Davidson diagonalization with overlap
     ethr =  2.94E-05,  avg # of iterations =  1.0

     negative rho (up, down):  4.363E-03 0.000E+00

     total cpu time spent up to now is      950.5 secs

     total energy              =  -15236.36970466 Ry
     Harris-Foulkes estimate   =  -15236.37973765 Ry
     estimated scf accuracy    <       0.10846155 Ry

     iteration #  9     ecut=    40.42 Ry     beta=0.20
     Davidson diagonalization with overlap
     ethr =  1.83E-05,  avg # of iterations =  4.8

     negative rho (up, down):  4.066E-03 0.000E+00

     total cpu time spent up to now is     1061.2 secs

     total energy              =  -15236.36827965 Ry
     Harris-Foulkes estimate   =  -15236.37232769 Ry
     estimated scf accuracy    <       0.08770753 Ry

     iteration # 10     ecut=    40.42 Ry     beta=0.20
     Davidson diagonalization with overlap
     ethr =  1.48E-05,  avg # of iterations =  2.0

     negative rho (up, down):  1.237E-02 0.000E+00

     total cpu time spent up to now is     1165.6 secs

     total energy              =  -15236.36601859 Ry
     Harris-Foulkes estimate   =  -15236.36958932 Ry
     estimated scf accuracy    <       0.05619799 Ry

     iteration # 11     ecut=    40.42 Ry     beta=0.20
     Davidson diagonalization with overlap
     ethr =  9.46E-06,  avg # of iterations =  8.2

     negative rho (up, down):  3.160E-02 0.000E+00

     total cpu time spent up to now is     1281.9 secs

     total energy              =  -15236.36554127 Ry
     Harris-Foulkes estimate   =  -15236.36759364 Ry
     estimated scf accuracy    <       0.04433093 Ry

     iteration # 12     ecut=    40.42 Ry     beta=0.20
     Davidson diagonalization with overlap
     ethr =  7.46E-06,  avg # of iterations =  1.8

     negative rho (up, down):  1.477E-01 0.000E+00

     total cpu time spent up to now is     1385.6 secs

     total energy              =  -15236.36502403 Ry
     Harris-Foulkes estimate   =  -15236.36590709 Ry
     estimated scf accuracy    <       0.03861284 Ry

     iteration # 13     ecut=    40.42 Ry     beta=0.20
     Davidson diagonalization with overlap
     ethr =  6.50E-06,  avg # of iterations =  2.5

     negative rho (up, down):  1.886E-01 0.000E+00

     total cpu time spent up to now is     1491.1 secs

     total energy              =  -15236.36406413 Ry
     Harris-Foulkes estimate   =  -15236.36566551 Ry
     estimated scf accuracy    <       0.02667309 Ry

     iteration # 14     ecut=    40.42 Ry     beta=0.20
     Davidson diagonalization with overlap
     ethr =  4.49E-06,  avg # of iterations =  2.8

     negative rho (up, down):  1.690E-01 0.000E+00

     total cpu time spent up to now is     1596.3 secs

     total energy              =  -15236.36076850 Ry
     Harris-Foulkes estimate   =  -15236.36455474 Ry
     estimated scf accuracy    <       0.01808209 Ry

     iteration # 15     ecut=    40.42 Ry     beta=0.20
     Davidson diagonalization with overlap
     ethr =  3.04E-06,  avg # of iterations =  2.2

     negative rho (up, down):  1.558E-01 0.000E+00

     total cpu time spent up to now is     1702.6 secs

     total energy              =  -15236.35831193 Ry
     Harris-Foulkes estimate   =  -15236.36117834 Ry
     estimated scf accuracy    <       0.01359378 Ry

     iteration # 16     ecut=    40.42 Ry     beta=0.20
     Davidson diagonalization with overlap
     ethr =  2.29E-06,  avg # of iterations =  2.5

     negative rho (up, down):  1.496E-01 0.000E+00

     total cpu time spent up to now is     1807.1 secs

     total energy              =  -15236.35578401 Ry
     Harris-Foulkes estimate   =  -15236.35852936 Ry
     estimated scf accuracy    <       0.00958124 Ry

     iteration # 17     ecut=    40.42 Ry     beta=0.20
     Davidson diagonalization with overlap
     ethr =  1.61E-06,  avg # of iterations =  7.8

     negative rho (up, down):  1.218E-01 0.000E+00

     total cpu time spent up to now is     1928.2 secs

     total energy              =  -15236.35472734 Ry
     Harris-Foulkes estimate   =  -15236.35645398 Ry
     estimated scf accuracy    <       0.00638406 Ry

     iteration # 18     ecut=    40.42 Ry     beta=0.20
     Davidson diagonalization with overlap
     ethr =  1.07E-06,  avg # of iterations =  2.8

     negative rho (up, down):  9.065E-02 0.000E+00

     total cpu time spent up to now is     2035.9 secs

     total energy              =  -15236.35271402 Ry
     Harris-Foulkes estimate   =  -15236.35481404 Ry
     estimated scf accuracy    <       0.00435967 Ry

     iteration # 19     ecut=    40.42 Ry     beta=0.20
     Davidson diagonalization with overlap
     ethr =  7.34E-07,  avg # of iterations =  3.5

     negative rho (up, down):  9.112E-02 0.000E+00

     total cpu time spent up to now is     2143.9 secs

     total energy              =  -15236.35256135 Ry
     Harris-Foulkes estimate   =  -15236.35287727 Ry
     estimated scf accuracy    <       0.00195100 Ry

     iteration # 20     ecut=    40.42 Ry     beta=0.20
     Davidson diagonalization with overlap
     ethr =  3.28E-07,  avg # of iterations =  7.8

     negative rho (up, down):  8.325E-02 0.000E+00

     total cpu time spent up to now is     2259.3 secs

     total energy              =  -15236.35240398 Ry
     Harris-Foulkes estimate   =  -15236.35264524 Ry
     estimated scf accuracy    <       0.00127391 Ry

     iteration # 21     ecut=    40.42 Ry     beta=0.20
     Davidson diagonalization with overlap
     c_bands:  3 eigenvalues not converged
     ethr =  2.14E-07,  avg # of iterations =  8.0

     negative rho (up, down):  7.471E-02 0.000E+00

     total cpu time spent up to now is     2374.9 secs

     total energy              =  -15236.35222248 Ry
     Harris-Foulkes estimate   =  -15236.35243456 Ry
     estimated scf accuracy    <       0.00092251 Ry

     iteration # 22     ecut=    40.42 Ry     beta=0.20
     Davidson diagonalization with overlap
     ethr =  1.55E-07,  avg # of iterations =  5.5

     negative rho (up, down):  6.926E-02 0.000E+00

     total cpu time spent up to now is     2486.4 secs

     total energy              =  -15236.35217339 Ry
     Harris-Foulkes estimate   =  -15236.35225064 Ry
     estimated scf accuracy    <       0.00064588 Ry

     iteration # 23     ecut=    40.42 Ry     beta=0.20
     Davidson diagonalization with overlap
     ethr =  1.09E-07,  avg # of iterations =  7.5

     negative rho (up, down):  6.732E-02 0.000E+00

     total cpu time spent up to now is     2599.5 secs

     total energy              =  -15236.35211513 Ry
     Harris-Foulkes estimate   =  -15236.35218310 Ry
     estimated scf accuracy    <       0.00046520 Ry

     iteration # 24     ecut=    40.42 Ry     beta=0.20
     Davidson diagonalization with overlap
     ethr =  7.83E-08,  avg # of iterations =  8.2

     negative rho (up, down):  7.279E-02 0.000E+00

     total cpu time spent up to now is     2718.1 secs

     total energy              =  -15236.35212675 Ry
     Harris-Foulkes estimate   =  -15236.35214116 Ry
     estimated scf accuracy    <       0.00025786 Ry

     iteration # 25     ecut=    40.42 Ry     beta=0.20
     Davidson diagonalization with overlap
     ethr =  4.34E-08,  avg # of iterations =  6.5

     negative rho (up, down):  7.585E-02 0.000E+00

     total cpu time spent up to now is     2830.4 secs

     total energy              =  -15236.35211290 Ry
     Harris-Foulkes estimate   =  -15236.35213668 Ry
     estimated scf accuracy    <       0.00012873 Ry

     iteration # 26     ecut=    40.42 Ry     beta=0.20
     Davidson diagonalization with overlap
     c_bands:  2 eigenvalues not converged
     ethr =  2.17E-08,  avg # of iterations = 18.8

     negative rho (up, down):  7.495E-02 0.000E+00

     total cpu time spent up to now is     2980.3 secs

     total energy              =  -15236.35210898 Ry
     Harris-Foulkes estimate   =  -15236.35211950 Ry
     estimated scf accuracy    <       0.00008676 Ry

     iteration # 27     ecut=    40.42 Ry     beta=0.20
     Davidson diagonalization with overlap
     c_bands:  2 eigenvalues not converged
     ethr =  1.46E-08,  avg # of iterations = 13.5

     negative rho (up, down):  7.453E-02 0.000E+00

     total cpu time spent up to now is     3108.9 secs

     total energy              =  -15236.35210006 Ry
     Harris-Foulkes estimate   =  -15236.35211173 Ry
     estimated scf accuracy    <       0.00006739 Ry

     iteration # 28     ecut=    40.42 Ry     beta=0.20
     Davidson diagonalization with overlap
     ethr =  1.13E-08,  avg # of iterations =  5.5

     negative rho (up, down):  7.400E-02 0.000E+00

     total cpu time spent up to now is     3219.3 secs

     total energy              =  -15236.35209760 Ry
     Harris-Foulkes estimate   =  -15236.35210164 Ry
     estimated scf accuracy    <       0.00004835 Ry

     iteration # 29     ecut=    40.42 Ry     beta=0.20
     Davidson diagonalization with overlap
     ethr =  8.14E-09,  avg # of iterations =  1.0

     negative rho (up, down):  7.370E-02 0.000E+00

     total cpu time spent up to now is     3321.9 secs

     total energy              =  -15236.35209291 Ry
     Harris-Foulkes estimate   =  -15236.35209795 Ry
     estimated scf accuracy    <       0.00004159 Ry

     iteration # 30     ecut=    40.42 Ry     beta=0.20
     Davidson diagonalization with overlap
     ethr =  7.00E-09,  avg # of iterations =  3.5

     negative rho (up, down):  7.349E-02 0.000E+00

     total cpu time spent up to now is     3433.6 secs

     total energy              =  -15236.35209212 Ry
     Harris-Foulkes estimate   =  -15236.35209411 Ry
     estimated scf accuracy    <       0.00003119 Ry

     iteration # 31     ecut=    40.42 Ry     beta=0.20
     Davidson diagonalization with overlap
     ethr =  5.25E-09,  avg # of iterations =  3.0

     negative rho (up, down):  7.347E-02 0.000E+00

     total cpu time spent up to now is     3538.0 secs

     total energy              =  -15236.35208734 Ry
     Harris-Foulkes estimate   =  -15236.35209253 Ry
     estimated scf accuracy    <       0.00002429 Ry

     iteration # 32     ecut=    40.42 Ry     beta=0.20
     Davidson diagonalization with overlap
     ethr =  4.09E-09,  avg # of iterations =  4.8

     negative rho (up, down):  7.355E-02 0.000E+00

     total cpu time spent up to now is     3648.8 secs

     total energy              =  -15236.35208673 Ry
     Harris-Foulkes estimate   =  -15236.35208820 Ry
     estimated scf accuracy    <       0.00001639 Ry

     iteration # 33     ecut=    40.42 Ry     beta=0.20
     Davidson diagonalization with overlap
     ethr =  2.76E-09,  avg # of iterations =  2.5

     negative rho (up, down):  7.273E-02 0.000E+00

     total cpu time spent up to now is     3753.3 secs

     total energy              =  -15236.35208248 Ry
     Harris-Foulkes estimate   =  -15236.35208695 Ry
     estimated scf accuracy    <       0.00001361 Ry

     iteration # 34     ecut=    40.42 Ry     beta=0.20
     Davidson diagonalization with overlap
     c_bands:  3 eigenvalues not converged
     ethr =  2.29E-09,  avg # of iterations =  7.8

     negative rho (up, down):  7.242E-02 0.000E+00

     total cpu time spent up to now is     3873.2 secs

     total energy              =  -15236.35208257 Ry
     Harris-Foulkes estimate   =  -15236.35208351 Ry
     estimated scf accuracy    <       0.00000885 Ry

     iteration # 35     ecut=    40.42 Ry     beta=0.20
     Davidson diagonalization with overlap
     c_bands:  5 eigenvalues not converged
     c_bands:  1 eigenvalues not converged
     c_bands:  2 eigenvalues not converged
     ethr =  1.49E-09,  avg # of iterations = 18.5

     negative rho (up, down):  7.253E-02 0.000E+00

     total cpu time spent up to now is     4013.1 secs

     total energy              =  -15236.35208236 Ry
     Harris-Foulkes estimate   =  -15236.35208315 Ry
     estimated scf accuracy    <       0.00000563 Ry

     iteration # 36     ecut=    40.42 Ry     beta=0.20
     Davidson diagonalization with overlap
     c_bands:  4 eigenvalues not converged
     c_bands:  1 eigenvalues not converged
     ethr =  9.48E-10,  avg # of iterations = 11.8

     negative rho (up, down):  7.239E-02 0.000E+00

     total cpu time spent up to now is     4137.1 secs

     total energy              =  -15236.35208176 Ry
     Harris-Foulkes estimate   =  -15236.35208258 Ry
     estimated scf accuracy    <       0.00000356 Ry

     iteration # 37     ecut=    40.42 Ry     beta=0.20
     Davidson diagonalization with overlap
     c_bands:  2 eigenvalues not converged
     ethr =  5.99E-10,  avg # of iterations = 11.8

     negative rho (up, down):  7.222E-02 0.000E+00

     total cpu time spent up to now is     4262.6 secs

     total energy              =  -15236.35208161 Ry
     Harris-Foulkes estimate   =  -15236.35208193 Ry
     estimated scf accuracy    <       0.00000214 Ry

     iteration # 38     ecut=    40.42 Ry     beta=0.20
     Davidson diagonalization with overlap
     c_bands:  4 eigenvalues not converged
     ethr =  3.60E-10,  avg # of iterations =  8.0

     negative rho (up, down):  7.223E-02 0.000E+00

     total cpu time spent up to now is     4380.2 secs

     total energy              =  -15236.35208147 Ry
     Harris-Foulkes estimate   =  -15236.35208169 Ry
     estimated scf accuracy    <       0.00000117 Ry

     iteration # 39     ecut=    40.42 Ry     beta=0.20
     Davidson diagonalization with overlap
     c_bands:  4 eigenvalues not converged
     ethr =  1.97E-10,  avg # of iterations = 13.8

     negative rho (up, down):  7.181E-02 0.000E+00

     total cpu time spent up to now is     4506.7 secs

     End of self-consistent calculation

          k = 0.0000 0.0000 0.0000 ( 88237 PWs)   bands (ev):

   -79.4338 -79.4088 -79.3768 -79.3748 -79.3744 -79.3724 -79.3716 -79.3658
   -79.3523 -79.3354 -79.3338 -79.3333 -79.3317 -79.3308 -79.3280 -79.3271
   -79.3265 -79.3261 -79.3250 -79.3236 -79.3231 -79.3218 -79.3200 -79.3116
   -79.3090 -79.3085 -79.3076 -79.3069 -79.3053 -79.3027 -79.3013 -79.3010
   -47.5698 -47.5687 -47.5684 -47.5179 -47.5169 -47.5166 -47.4628 -47.4615
   -47.4581 -47.4566 -47.4562 -47.4541 -47.4326 -47.4317 -47.4292 -47.4281
   -47.4279 -47.4260 -47.3066 -47.2987 -47.2973 -47.2921 -47.2911 -47.2902
   -47.2810 -47.2760 -47.2751 -47.2718 -47.2710 -47.2704 -47.2687 -47.2481
   -47.2475 -47.2447 -47.2432 -47.2409 -47.2400 -47.1848 -47.1841 -47.1799
   -47.1788 -47.1766 -47.1764 -47.1495 -47.1367 -47.1360 -47.1314 -47.1244
   -47.1233 -47.1228 -47.1210 -47.1207 -47.0673 -47.0663 -47.0662 -47.0622
   -47.0611 -47.0609 -47.0601 -47.0555 -47.0536 -47.0493 -47.0409 -47.0398
   -47.0387 -47.0286 -47.0276 -47.0271 -47.0250 -47.0246 -46.9925 -46.9916
   -46.9884 -46.9877 -46.9875 -46.9864 -46.9821 -46.9816 -46.9505 -46.9332
   -46.9328 -46.9245 -46.9236 -46.9224 -46.9161 -46.9153 -46.9140 -46.9123
   -46.9113 -46.8897 -46.8867 -46.8850 -46.8823 -46.8814 -46.8794 -46.8764
   -24.0224 -23.4784 -21.6598 -21.0832 -16.6015 -14.4206 -12.6773 -11.8439
    -9.7839  -8.5327  -8.4169  -8.1265  -7.6223  -7.3175  -7.2767  -6.7887
    -6.3993  -6.3445  -6.2074  -6.2056  -6.2050  -6.0446  -5.8820  -5.8746
    -5.8715  -5.8714  -5.8709  -5.8672  -5.8624  -5.8616  -5.8575  -5.8215
    -5.5202  -5.4974  -5.4894  -5.4346  -5.3265  -5.3194  -5.3186  -5.3176
    -5.3172  -5.3123  -5.2469  -5.2452  -5.2447  -5.2444  -5.2429  -5.2421
    -4.8444  -4.8140  -4.8082  -4.8075  -4.8062  -4.8052  -4.8004  -4.7346
    -4.7342  -4.7319  -4.7315  -4.7302  -4.7301  -4.5608  -4.5474  -4.5450
    -4.5449  -4.5445  -4.5323  -4.2626  -4.0079  -4.0036  -3.9833  -3.7216
    -3.7131  -3.7124  -3.7119  -3.7114  -3.7106  -3.6939  -3.6794  -3.6409
    -3.6359  -3.6343  -3.6322  -3.6299  -3.6200  -3.4514  -3.4512  -3.3971
    -3.3852  -3.3838  -3.3806  -3.3789  -3.3747  -3.2756  -3.2752  -3.2319
    -3.2256  -3.2218  -3.2198  -3.2172  -3.2168  -3.1820  -3.1624  -3.1623
    -3.1613  -3.1549  -3.1458  -2.9126  -2.9091  -2.9052  -2.9032  -2.9016
    -2.8994  -2.8962  -2.8490  -2.8409  -2.8404  -2.8390  -2.8281  -2.7740
    -2.7255  -2.7248  -2.7190  -2.6985  -2.4811  -2.4802  -2.4747  -2.4745
    -2.4740  -2.4723  -2.2522  -2.0200  -2.0124  -2.0106  -2.0086  -2.0033
    -1.9708  -1.9705  -1.9666  -1.9665  -1.9662  -1.9649  -1.9420  -1.8138
    -1.7857  -1.7824  -1.7233  -1.4962  -1.4923  -1.4822  -1.4807  -1.4805
    -1.4788  -1.4779  -1.4768  -1.4644  -1.4638  -1.4608  -1.4606  -1.4601
    -1.4590  -1.3072  -1.3044  -1.3010  -1.3004  -1.2966  -1.2650  -1.2104
    -1.2039  -1.1760  -0.7950  -0.7940  -0.7879  -0.5660  -0.5645  -0.5540
    -0.5535  -0.5523  -0.5519

          k = 0.0000-0.0537 0.0000 ( 88092 PWs)   bands (ev):

   -79.4315 -79.4065 -79.3968 -79.3827 -79.3751 -79.3551 -79.3533 -79.3511
   -79.3505 -79.3486 -79.3456 -79.3401 -79.3395 -79.3372 -79.3298 -79.3273
   -79.3251 -79.3234 -79.3219 -79.3185 -79.3175 -79.3170 -79.3142 -79.3131
   -79.3122 -79.3107 -79.3086 -79.3066 -79.3056 -79.3035 -79.3022 -79.2998
   -47.5271 -47.5241 -47.5219 -47.5214 -47.4945 -47.4896 -47.4802 -47.4781
   -47.4762 -47.4756 -47.4680 -47.4634 -47.4467 -47.4426 -47.4232 -47.4188
   -47.3996 -47.3992 -47.3949 -47.3937 -47.3755 -47.3709 -47.3680 -47.3663
   -47.3170 -47.3120 -47.2732 -47.2546 -47.2526 -47.2522 -47.2471 -47.2440
   -47.2111 -47.2067 -47.1933 -47.1885 -47.1868 -47.1860 -47.1566 -47.1446
   -47.1422 -47.1406 -47.1279 -47.1234 -47.1172 -47.1154 -47.1140 -47.1130
   -47.1083 -47.1074 -47.1007 -47.0863 -47.0847 -47.0838 -47.0811 -47.0777
   -47.0701 -47.0680 -47.0540 -47.0505 -47.0492 -47.0480 -47.0409 -47.0362
   -47.0347 -47.0339 -47.0323 -47.0319 -47.0281 -47.0259 -47.0051 -47.0032
   -47.0005 -46.9981 -46.9945 -46.9888 -46.9861 -46.9857 -46.9553 -46.9468
   -46.9446 -46.9405 -46.9326 -46.9224 -46.9182 -46.9167 -46.9060 -46.9039
   -46.8999 -46.8924 -46.8920 -46.8897 -46.8837 -46.8804 -46.8799 -46.8770
   -24.0224 -23.4784 -21.6598 -21.0832 -16.6015 -14.4206 -12.6773 -11.8439
    -9.7840  -8.5326  -8.4168  -8.1260  -7.6223  -7.3136  -6.7999  -6.7571
    -6.7452  -6.3976  -6.0467  -6.0137  -6.0085  -5.9274  -5.8961  -5.8802
    -5.8729  -5.8607  -5.7816  -5.7804  -5.7785  -5.7774  -5.6548  -5.6507
    -5.5000  -5.4985  -5.4966  -5.4939  -5.4667  -5.4269  -5.4225  -5.4200
    -5.4155  -5.2881  -5.2845  -5.2842  -5.2730  -5.2365  -5.2310  -5.2118
    -5.2102  -5.1629  -5.1572  -5.0757  -5.0748  -5.0714  -5.0696  -4.8677
    -4.8657  -4.8605  -4.8530  -4.8323  -4.7742  -4.7697  -4.7131  -4.7111
    -4.2797  -4.2729  -4.2597  -4.0339  -4.0274  -3.8602  -3.8567  -3.8561
    -3.8557  -3.8353  -3.8313  -3.8287  -3.8234  -3.6952  -3.6895  -3.6868
    -3.6823  -3.6781  -3.6772  -3.6754  -3.6742  -3.6548  -3.6234  -3.6198
    -3.5281  -3.5270  -3.4672  -3.4641  -3.4109  -3.4023  -3.3997  -3.3947
    -3.0694  -3.0650  -3.0616  -3.0448  -3.0424  -3.0408  -3.0405  -3.0380
    -3.0365  -3.0362  -3.0322  -3.0302  -2.9303  -2.9261  -2.9003  -2.8948
    -2.8411  -2.7987  -2.7903  -2.7204  -2.6228  -2.6172  -2.5527  -2.5497
    -2.5470  -2.5456  -2.5213  -2.5158  -2.4559  -2.4220  -2.2510  -2.2255
    -2.2234  -2.2213  -2.2192  -2.1923  -2.1851  -2.1148  -2.1108  -1.9945
    -1.9725  -1.8132  -1.8087  -1.8054  -1.8042  -1.6931  -1.6915  -1.6837
    -1.6805  -1.6740  -1.6695  -1.6650  -1.6226  -1.6171  -1.5751  -1.5533
    -1.5492  -1.3563  -1.3526  -1.1349  -1.1325  -1.1298  -1.1256  -1.0769
    -1.0725  -1.0699  -1.0669  -0.9495  -0.9490  -0.9481  -0.9474  -0.9230
    -0.9190  -0.9147  -0.9110  -0.8056  -0.8007  -0.7266  -0.7189  -0.7084
    -0.6815  -0.6693  -0.6656

          k = 0.0465-0.0268 0.0000 ( 88092 PWs)   bands (ev):

   -79.4315 -79.4064 -79.3968 -79.3828 -79.3753 -79.3558 -79.3518 -79.3511
   -79.3503 -79.3489 -79.3462 -79.3399 -79.3381 -79.3379 -79.3301 -79.3272
   -79.3269 -79.3244 -79.3204 -79.3187 -79.3182 -79.3163 -79.3135 -79.3124
   -79.3107 -79.3105 -79.3088 -79.3074 -79.3072 -79.3043 -79.3011 -79.2997
   -47.5262 -47.5254 -47.5217 -47.5211 -47.4948 -47.4896 -47.4798 -47.4788
   -47.4758 -47.4756 -47.4681 -47.4636 -47.4469 -47.4422 -47.4231 -47.4188
   -47.3996 -47.3987 -47.3952 -47.3934 -47.3754 -47.3706 -47.3686 -47.3663
   -47.3166 -47.3123 -47.2732 -47.2543 -47.2531 -47.2522 -47.2466 -47.2439
   -47.2111 -47.2071 -47.1935 -47.1884 -47.1871 -47.1859 -47.1568 -47.1440
   -47.1417 -47.1413 -47.1278 -47.1228 -47.1172 -47.1152 -47.1139 -47.1133
   -47.1093 -47.1074 -47.1010 -47.0871 -47.0846 -47.0833 -47.0807 -47.0764
   -47.0702 -47.0682 -47.0530 -47.0504 -47.0493 -47.0490 -47.0414 -47.0358
   -47.0355 -47.0342 -47.0320 -47.0313 -47.0280 -47.0275 -47.0055 -47.0032
   -46.9995 -46.9984 -46.9918 -46.9884 -46.9867 -46.9856 -46.9578 -46.9472
   -46.9446 -46.9410 -46.9291 -46.9221 -46.9190 -46.9169 -46.9073 -46.9053
   -46.8986 -46.8921 -46.8917 -46.8901 -46.8823 -46.8808 -46.8791 -46.8784
   -24.0224 -23.4784 -21.6598 -21.0832 -16.6015 -14.4206 -12.6773 -11.8439
    -9.7839  -8.5326  -8.4168  -8.1261  -7.6221  -7.3133  -6.8009  -6.7590
    -6.7428  -6.3985  -6.0390  -6.0124  -6.0070  -5.9279  -5.9077  -5.8789
    -5.8710  -5.8615  -5.7841  -5.7807  -5.7786  -5.7781  -5.6525  -5.6436
    -5.5023  -5.4985  -5.4965  -5.4942  -5.4645  -5.4269  -5.4249  -5.4206
    -5.4183  -5.2877  -5.2852  -5.2827  -5.2746  -5.2357  -5.2321  -5.2111
    -5.2101  -5.1630  -5.1578  -5.0761  -5.0740  -5.0718  -5.0709  -4.8684
    -4.8657  -4.8609  -4.8497  -4.8317  -4.7733  -4.7699  -4.7116  -4.7092
    -4.3054  -4.2721  -4.2537  -4.0311  -4.0210  -3.8612  -3.8577  -3.8565
    -3.8426  -3.8365  -3.8316  -3.8305  -3.8199  -3.6986  -3.6904  -3.6865
    -3.6839  -3.6780  -3.6770  -3.6755  -3.6742  -3.6685  -3.6211  -3.6136
    -3.5290  -3.5235  -3.4672  -3.4626  -3.4104  -3.4011  -3.3991  -3.3921
    -3.0656  -3.0623  -3.0613  -3.0489  -3.0416  -3.0408  -3.0399  -3.0384
    -3.0375  -3.0361  -3.0335  -3.0239  -2.9304  -2.9257  -2.9003  -2.8981
    -2.8432  -2.8026  -2.7964  -2.7208  -2.6217  -2.6170  -2.5517  -2.5476
    -2.5466  -2.5454  -2.5213  -2.5176  -2.4562  -2.4217  -2.2512  -2.2248
    -2.2225  -2.2198  -2.2171  -2.1925  -2.1912  -2.1140  -2.1104  -1.9877
    -1.9785  -1.8141  -1.8061  -1.8051  -1.8030  -1.7023  -1.6889  -1.6827
    -1.6817  -1.6793  -1.6726  -1.6681  -1.6223  -1.6171  -1.5638  -1.5532
    -1.5416  -1.3554  -1.3530  -1.1375  -1.1332  -1.1281  -1.1278  -1.0762
    -1.0729  -1.0691  -1.0669  -0.9505  -0.9483  -0.9477  -0.9450  -0.9223
    -0.9214  -0.9154  -0.9108  -0.8056  -0.8017  -0.7276  -0.7184  -0.7135
    -0.6787  -0.6696  -0.6644

          k =-0.0465-0.0268 0.0000 ( 88092 PWs)   bands (ev):

   -79.4315 -79.4064 -79.3969 -79.3826 -79.3751 -79.3551 -79.3535 -79.3505
   -79.3503 -79.3488 -79.3466 -79.3404 -79.3381 -79.3375 -79.3297 -79.3275
   -79.3247 -79.3235 -79.3225 -79.3183 -79.3174 -79.3171 -79.3148 -79.3129
   -79.3119 -79.3110 -79.3084 -79.3067 -79.3053 -79.3035 -79.3023 -79.2998
   -47.5267 -47.5243 -47.5218 -47.5214 -47.4950 -47.4896 -47.4798 -47.4781
   -47.4759 -47.4755 -47.4681 -47.4634 -47.4473 -47.4428 -47.4236 -47.4191
   -47.3995 -47.3992 -47.3952 -47.3935 -47.3758 -47.3705 -47.3681 -47.3660
   -47.3166 -47.3119 -47.2731 -47.2545 -47.2526 -47.2521 -47.2471 -47.2437
   -47.2109 -47.2067 -47.1941 -47.1888 -47.1864 -47.1858 -47.1571 -47.1443
   -47.1423 -47.1413 -47.1279 -47.1235 -47.1169 -47.1153 -47.1143 -47.1128
   -47.1079 -47.1073 -47.1006 -47.0858 -47.0842 -47.0837 -47.0817 -47.0778
   -47.0704 -47.0680 -47.0545 -47.0500 -47.0493 -47.0483 -47.0412 -47.0362
   -47.0350 -47.0337 -47.0324 -47.0319 -47.0274 -47.0259 -47.0049 -47.0030
   -47.0008 -46.9985 -46.9950 -46.9890 -46.9861 -46.9857 -46.9544 -46.9467
   -46.9445 -46.9406 -46.9335 -46.9226 -46.9174 -46.9162 -46.9062 -46.9045
   -46.8999 -46.8922 -46.8918 -46.8901 -46.8832 -46.8804 -46.8801 -46.8770
   -24.0224 -23.4784 -21.6598 -21.0832 -16.6015 -14.4206 -12.6773 -11.8439
    -9.7839  -8.5325  -8.4169  -8.1260  -7.6223  -7.3134  -6.8011  -6.7576
    -6.7440  -6.3978  -6.0415  -6.0118  -6.0064  -5.9273  -5.9072  -5.8800
    -5.8696  -5.8604  -5.7831  -5.7804  -5.7783  -5.7775  -5.6541  -5.6515
    -5.5003  -5.4986  -5.4970  -5.4951  -5.4633  -5.4284  -5.4227  -5.4225
    -5.4143  -5.2879  -5.2870  -5.2841  -5.2805  -5.2340  -5.2240  -5.2102
    -5.2072  -5.1633  -5.1576  -5.0760  -5.0750  -5.0716  -5.0676  -4.8724
    -4.8663  -4.8603  -4.8548  -4.8299  -4.7698  -4.7695  -4.7149  -4.7113
    -4.2946  -4.2734  -4.2539  -4.0332  -4.0239  -3.8604  -3.8583  -3.8559
    -3.8520  -3.8353  -3.8308  -3.8284  -3.8190  -3.6957  -3.6901  -3.6874
    -3.6837  -3.6780  -3.6773  -3.6760  -3.6717  -3.6659  -3.6219  -3.6162
    -3.5293  -3.5243  -3.4672  -3.4630  -3.4086  -3.4031  -3.4017  -3.3907
    -3.0663  -3.0649  -3.0616  -3.0485  -3.0415  -3.0411  -3.0400  -3.0374
    -3.0364  -3.0361  -3.0351  -3.0236  -2.9306  -2.9261  -2.8997  -2.8956
    -2.8520  -2.7996  -2.7856  -2.7237  -2.6218  -2.6172  -2.5517  -2.5489
    -2.5471  -2.5454  -2.5212  -2.5151  -2.4561  -2.4228  -2.2507  -2.2251
    -2.2239  -2.2214  -2.2180  -2.1945  -2.1851  -2.1140  -2.1106  -1.9909
    -1.9738  -1.8136  -1.8094  -1.8047  -1.8021  -1.6952  -1.6889  -1.6856
    -1.6827  -1.6739  -1.6685  -1.6648  -1.6217  -1.6172  -1.5732  -1.5535
    -1.5488  -1.3562  -1.3537  -1.1365  -1.1324  -1.1306  -1.1253  -1.0785
    -1.0721  -1.0690  -1.0668  -0.9502  -0.9488  -0.9478  -0.9466  -0.9231
    -0.9191  -0.9147  -0.9110  -0.8071  -0.8008  -0.7294  -0.7184  -0.7071
    -0.6798  -0.6694  -0.6651

     the Fermi energy is    -0.8866 ev

!    total energy              =  -15236.35208123 Ry
     Harris-Foulkes estimate   =  -15236.35208155 Ry
     estimated scf accuracy    <       0.00000061 Ry

     The total energy is the sum of the following terms:

     one-electron contribution =  -76915.16663664 Ry
     hartree contribution      =   38450.44144175 Ry
     xc contribution           =    -997.86093717 Ry
     ewald contribution        =   32109.72809367 Ry
     one-center paw contrib.   =   -7883.34995665 Ry
     smearing contrib. (-TS)   =      -0.14408619 Ry

     convergence has been achieved in  39 iterations

     Forces acting on atoms (Ry/au):


     negative rho (up, down):  7.181E-02 0.000E+00
     atom    1 type  1   force =    -0.00015201    0.00000012    0.00987800
     atom    2 type  1   force =     0.00002421    0.00047228   -0.00975949
     atom    3 type  1   force =    -0.00048345   -0.00006199    0.01005035
     atom    4 type  1   force =    -0.00202531   -0.00308581   -0.01179541
     atom    5 type  1   force =    -0.00081135   -0.00072516    0.00914568
     atom    6 type  1   force =    -0.00362857    0.00018054   -0.01036004
     atom    7 type  1   force =    -0.00000758   -0.00001417    0.00982917
     atom    8 type  1   force =     0.00054298   -0.00043010   -0.00971540
     atom    9 type  1   force =    -0.00011877   -0.00006226    0.00979556
     atom   10 type  1   force =    -0.00006876    0.00009247   -0.01044553
     atom   11 type  1   force =     0.00012144    0.00035462    0.00949867
     atom   12 type  1   force =     0.00200420   -0.00314313   -0.01261304
     atom   13 type  1   force =     0.00104441    0.00073714    0.01027813
     atom   14 type  1   force =     0.00705874   -0.00237666   -0.01472612
     atom   15 type  1   force =     0.00023621    0.00001911    0.00970444
     atom   16 type  1   force =    -0.00189169    0.00308358   -0.01137822
     atom   17 type  1   force =     0.00027036    0.00046759    0.00990949
     atom   18 type  1   force =    -0.00023551   -0.00053534   -0.00919497
     atom   19 type  1   force =     0.00015302   -0.00002425    0.01074291
     atom   20 type  1   force =    -0.00032396    0.00009417   -0.00917329
     atom   21 type  1   force =     0.00032410   -0.00022235    0.00683170
     atom   22 type  1   force =     0.00361110   -0.00023330   -0.01260733
     atom   23 type  1   force =    -0.00020530   -0.00096080    0.00951044
     atom   24 type  1   force =     0.00159558    0.00315736   -0.01202074
     atom   25 type  1   force =    -0.00010369    0.00025019    0.01034327
     atom   26 type  1   force =     0.00034095   -0.00017055   -0.01029626
     atom   27 type  1   force =    -0.00006997    0.00008152    0.00911618
     atom   28 type  1   force =     0.00048888    0.00050933   -0.00921422
     atom   29 type  1   force =     0.00016165   -0.00008885    0.01050001
     atom   30 type  1   force =     0.00017496    0.00013167   -0.01037842
     atom   31 type  1   force =    -0.00035282   -0.00024151    0.00956868
     atom   32 type  1   force =    -0.00036135   -0.00013316   -0.00982080
     atom   33 type  2   force =     0.00265072    0.00735437   -0.01367323
     atom   34 type  2   force =     0.00149450    0.02810129   -0.01786856
     atom   35 type  2   force =     0.02473934    0.00089118   -0.03013979
     atom   36 type  2   force =    -0.00039465    0.00513151   -0.01380478
     atom   37 type  3   force =    -0.00431706   -0.00850795    0.01595319
     atom   38 type  3   force =     0.00389070   -0.01911416    0.01093045
     atom   39 type  3   force =    -0.02145822    0.00390898    0.03876333
     atom   40 type  3   force =     0.00156824   -0.00126320    0.02849801
     atom   41 type  3   force =     0.00159615   -0.00034212   -0.00928094
     atom   42 type  4   force =    -0.00022963    0.00446853   -0.00505121
     atom   43 type  4   force =     0.00189472   -0.00217263   -0.00549461
     atom   44 type  4   force =    -0.00040737   -0.00539950   -0.00646976
     atom   45 type  4   force =     0.00051056    0.00615275    0.00725161
     atom   46 type  4   force =    -0.01716971    0.00150307    0.01329083
     atom   47 type  4   force =    -0.00168096   -0.01783439    0.00589207

     Total force =     0.107093     Total SCF correction =     0.003175
 !ASE

     Writing output data file calc.save
     Check: negative starting charge=   -0.062008
     NEW-OLD atomic charge density approx. for the potential

     Check: negative/imaginary core charge=   -0.000001    0.000000
     Check: negative starting charge=   -0.064457

     negative rho (up, down):  7.428E-02 0.000E+00

     total cpu time spent up to now is     4597.0 secs

     per-process dynamical memory:   439.3 Mb

     Self-consistent Calculation

     iteration #  1     ecut=    40.42 Ry     beta=0.20
     Davidson diagonalization with overlap
     c_bands:  3 eigenvalues not converged
     ethr =  1.97E-10,  avg # of iterations = 19.2

     negative rho (up, down):  7.259E-02 0.000E+00

     total cpu time spent up to now is     5049.5 secs

     total energy              =  -15236.17617911 Ry
     Harris-Foulkes estimate   =  -15236.47725568 Ry
     estimated scf accuracy    <       0.10991683 Ry

     iteration #  2     ecut=    40.42 Ry     beta=0.20
     Davidson diagonalization with overlap
     ethr =  1.85E-05,  avg # of iterations =  2.0

     negative rho (up, down):  6.721E-02 0.000E+00

     total cpu time spent up to now is     5152.7 secs

     total energy              =  -15236.12985058 Ry
     Harris-Foulkes estimate   =  -15236.17660657 Ry
     estimated scf accuracy    <       0.07929842 Ry

     iteration #  3     ecut=    40.42 Ry     beta=0.20
     Davidson diagonalization with overlap
     ethr =  1.33E-05,  avg # of iterations =  3.0

     negative rho (up, down):  6.582E-02 0.000E+00

     total cpu time spent up to now is     5262.6 secs

     total energy              =  -15236.13871934 Ry
     Harris-Foulkes estimate   =  -15236.13988192 Ry
     estimated scf accuracy    <       0.01054811 Ry

     iteration #  4     ecut=    40.42 Ry     beta=0.20
     Davidson diagonalization with overlap
     ethr =  1.78E-06,  avg # of iterations =  3.0

     negative rho (up, down):  6.355E-02 0.000E+00

     total cpu time spent up to now is     5370.9 secs

     total energy              =  -15236.13774572 Ry
     Harris-Foulkes estimate   =  -15236.13900944 Ry
     estimated scf accuracy    <       0.00709440 Ry

     iteration #  5     ecut=    40.42 Ry     beta=0.20
     Davidson diagonalization with overlap
     ethr =  1.19E-06,  avg # of iterations =  3.0

     negative rho (up, down):  6.251E-02 0.000E+00

     total cpu time spent up to now is     5476.2 secs

     total energy              =  -15236.13770888 Ry
     Harris-Foulkes estimate   =  -15236.13811737 Ry
     estimated scf accuracy    <       0.00412706 Ry

     iteration #  6     ecut=    40.42 Ry     beta=0.20
     Davidson diagonalization with overlap
     ethr =  6.95E-07,  avg # of iterations =  5.5

     negative rho (up, down):  6.089E-02 0.000E+00

     total cpu time spent up to now is     5589.7 secs

     total energy              =  -15236.13741586 Ry
     Harris-Foulkes estimate   =  -15236.13778642 Ry
     estimated scf accuracy    <       0.00328352 Ry

     iteration #  7     ecut=    40.42 Ry     beta=0.20
     Davidson diagonalization with overlap
     ethr =  5.53E-07,  avg # of iterations =  3.0

     negative rho (up, down):  6.060E-02 0.000E+00

     total cpu time spent up to now is     5706.2 secs

     total energy              =  -15236.13734754 Ry
     Harris-Foulkes estimate   =  -15236.13752464 Ry
     estimated scf accuracy    <       0.00261646 Ry

     iteration #  8     ecut=    40.42 Ry     beta=0.20
     Davidson diagonalization with overlap
     ethr =  4.40E-07,  avg # of iterations =  2.0

     negative rho (up, down):  6.025E-02 0.000E+00

     total cpu time spent up to now is     5811.2 secs

     total energy              =  -15236.13715792 Ry
     Harris-Foulkes estimate   =  -15236.13737340 Ry
     estimated scf accuracy    <       0.00228731 Ry

     iteration #  9     ecut=    40.42 Ry     beta=0.20
     Davidson diagonalization with overlap
     ethr =  3.85E-07,  avg # of iterations =  2.0

     negative rho (up, down):  6.055E-02 0.000E+00

     total cpu time spent up to now is     5915.0 secs

     total energy              =  -15236.13706224 Ry
     Harris-Foulkes estimate   =  -15236.13718965 Ry
     estimated scf accuracy    <       0.00198829 Ry

     iteration # 10     ecut=    40.42 Ry     beta=0.20
     Davidson diagonalization with overlap
     ethr =  3.35E-07,  avg # of iterations =  2.0

     negative rho (up, down):  6.529E-02 0.000E+00

     total cpu time spent up to now is     6023.6 secs

     total energy              =  -15236.13646809 Ry
     Harris-Foulkes estimate   =  -15236.13707469 Ry
     estimated scf accuracy    <       0.00177322 Ry

     iteration # 11     ecut=    40.42 Ry     beta=0.20
     Davidson diagonalization with overlap
     ethr =  2.99E-07,  avg # of iterations =  9.5

     negative rho (up, down):  6.575E-02 0.000E+00

     total cpu time spent up to now is     6146.6 secs

     total energy              =  -15236.13645515 Ry
     Harris-Foulkes estimate   =  -15236.13658177 Ry
     estimated scf accuracy    <       0.00085631 Ry

     iteration # 12     ecut=    40.42 Ry     beta=0.20
     Davidson diagonalization with overlap
     ethr =  1.44E-07,  avg # of iterations =  5.5

     negative rho (up, down):  6.861E-02 0.000E+00

     total cpu time spent up to now is     6256.9 secs

     total energy              =  -15236.13624348 Ry
     Harris-Foulkes estimate   =  -15236.13647261 Ry
     estimated scf accuracy    <       0.00062169 Ry

     iteration # 13     ecut=    40.42 Ry     beta=0.20
     Davidson diagonalization with overlap
     ethr =  1.05E-07,  avg # of iterations =  6.8

     negative rho (up, down):  6.938E-02 0.000E+00

     total cpu time spent up to now is     6373.5 secs

     total energy              =  -15236.13623368 Ry
     Harris-Foulkes estimate   =  -15236.13628169 Ry
     estimated scf accuracy    <       0.00026972 Ry

     iteration # 14     ecut=    40.42 Ry     beta=0.20
     Davidson diagonalization with overlap
     c_bands:  1 eigenvalues not converged
     ethr =  4.54E-08,  avg # of iterations =  8.5

     negative rho (up, down):  6.949E-02 0.000E+00

     total cpu time spent up to now is     6489.9 secs

     total energy              =  -15236.13621660 Ry
     Harris-Foulkes estimate   =  -15236.13624358 Ry
     estimated scf accuracy    <       0.00018876 Ry

     iteration # 15     ecut=    40.42 Ry     beta=0.20
     Davidson diagonalization with overlap
     ethr =  3.18E-08,  avg # of iterations =  6.8

     negative rho (up, down):  6.952E-02 0.000E+00

     total cpu time spent up to now is     6599.3 secs

     total energy              =  -15236.13619758 Ry
     Harris-Foulkes estimate   =  -15236.13622037 Ry
     estimated scf accuracy    <       0.00012766 Ry

     iteration # 16     ecut=    40.42 Ry     beta=0.20
     Davidson diagonalization with overlap
     ethr =  2.15E-08,  avg # of iterations =  3.0

     negative rho (up, down):  6.951E-02 0.000E+00

     total cpu time spent up to now is     6707.2 secs

     total energy              =  -15236.13618355 Ry
     Harris-Foulkes estimate   =  -15236.13620116 Ry
     estimated scf accuracy    <       0.00008048 Ry

     iteration # 17     ecut=    40.42 Ry     beta=0.20
     Davidson diagonalization with overlap
     c_bands:  3 eigenvalues not converged
     ethr =  1.35E-08,  avg # of iterations = 11.2

     negative rho (up, down):  6.940E-02 0.000E+00

     total cpu time spent up to now is     6829.8 secs

     total energy              =  -15236.13617801 Ry
     Harris-Foulkes estimate   =  -15236.13618754 Ry
     estimated scf accuracy    <       0.00005528 Ry

     iteration # 18     ecut=    40.42 Ry     beta=0.20
     Davidson diagonalization with overlap
     c_bands:  2 eigenvalues not converged
     c_bands:  1 eigenvalues not converged
     ethr =  9.31E-09,  avg # of iterations = 13.8

     negative rho (up, down):  6.968E-02 0.000E+00

     total cpu time spent up to now is     6954.4 secs

     total energy              =  -15236.13617379 Ry
     Harris-Foulkes estimate   =  -15236.13617963 Ry
     estimated scf accuracy    <       0.00004057 Ry

     iteration # 19     ecut=    40.42 Ry     beta=0.20
     Davidson diagonalization with overlap
     c_bands:  1 eigenvalues not converged
     ethr =  6.83E-09,  avg # of iterations = 11.0

     negative rho (up, down):  6.987E-02 0.000E+00

     total cpu time spent up to now is     7072.2 secs

     total energy              =  -15236.13617019 Ry
     Harris-Foulkes estimate   =  -15236.13617459 Ry
     estimated scf accuracy    <       0.00003295 Ry

     iteration # 20     ecut=    40.42 Ry     beta=0.20
     Davidson diagonalization with overlap
     ethr =  5.55E-09,  avg # of iterations =  2.0

     negative rho (up, down):  7.003E-02 0.000E+00

     total cpu time spent up to now is     7173.4 secs

     total energy              =  -15236.13616814 Ry
     Harris-Foulkes estimate   =  -15236.13617072 Ry
     estimated scf accuracy    <       0.00002680 Ry

     iteration # 21     ecut=    40.42 Ry     beta=0.20
     Davidson diagonalization with overlap
     ethr =  4.51E-09,  avg # of iterations =  1.0

     negative rho (up, down):  7.097E-02 0.000E+00

     total cpu time spent up to now is     7273.1 secs

     total energy              =  -15236.13615999 Ry
     Harris-Foulkes estimate   =  -15236.13616826 Ry
     estimated scf accuracy    <       0.00002363 Ry

     iteration # 22     ecut=    40.42 Ry     beta=0.20
     Davidson diagonalization with overlap
     ethr =  3.98E-09,  avg # of iterations =  5.2

     negative rho (up, down):  7.201E-02 0.000E+00

     total cpu time spent up to now is     7380.1 secs

     total energy              =  -15236.13615605 Ry
     Harris-Foulkes estimate   =  -15236.13616054 Ry
     estimated scf accuracy    <       0.00001305 Ry

     iteration # 23     ecut=    40.42 Ry     beta=0.20
     Davidson diagonalization with overlap
     c_bands:  2 eigenvalues not converged
     c_bands:  1 eigenvalues not converged
     ethr =  2.20E-09,  avg # of iterations = 12.8

     negative rho (up, down):  7.237E-02 0.000E+00

     total cpu time spent up to now is     7506.0 secs

     total energy              =  -15236.13615517 Ry
     Harris-Foulkes estimate   =  -15236.13615668 Ry
     estimated scf accuracy    <       0.00000791 Ry

     iteration # 24     ecut=    40.42 Ry     beta=0.20
     Davidson diagonalization with overlap
     ethr =  1.33E-09,  avg # of iterations =  9.2

     negative rho (up, down):  7.304E-02 0.000E+00

     total cpu time spent up to now is     7620.9 secs

     total energy              =  -15236.13615346 Ry
     Harris-Foulkes estimate   =  -15236.13615537 Ry
     estimated scf accuracy    <       0.00000591 Ry

     iteration # 25     ecut=    40.42 Ry     beta=0.20
     Davidson diagonalization with overlap
     ethr =  9.95E-10,  avg # of iterations =  2.8

     negative rho (up, down):  7.344E-02 0.000E+00

     total cpu time spent up to now is     7726.8 secs

     total energy              =  -15236.13615300 Ry
     Harris-Foulkes estimate   =  -15236.13615369 Ry
     estimated scf accuracy    <       0.00000267 Ry

     iteration # 26     ecut=    40.42 Ry     beta=0.20
     Davidson diagonalization with overlap
     ethr =  4.50E-10,  avg # of iterations =  3.5

     negative rho (up, down):  7.366E-02 0.000E+00

     total cpu time spent up to now is     7833.3 secs

     total energy              =  -15236.13615278 Ry
     Harris-Foulkes estimate   =  -15236.13615309 Ry
     estimated scf accuracy    <       0.00000149 Ry

     iteration # 27     ecut=    40.42 Ry     beta=0.20
     Davidson diagonalization with overlap
     c_bands:  1 eigenvalues not converged
     ethr =  2.51E-10,  avg # of iterations =  7.2

     negative rho (up, down):  7.394E-02 0.000E+00

     total cpu time spent up to now is     7943.3 secs

     total energy              =  -15236.13615238 Ry
     Harris-Foulkes estimate   =  -15236.13615281 Ry
     estimated scf accuracy    <       0.00000097 Ry

     iteration # 28     ecut=    40.42 Ry     beta=0.20
     Davidson diagonalization with overlap
     c_bands:  2 eigenvalues not converged
     ethr =  1.64E-10,  avg # of iterations = 13.2

     negative rho (up, down):  7.433E-02 0.000E+00

     total cpu time spent up to now is     8061.9 secs

     End of self-consistent calculation

          k = 0.0000 0.0000 0.0000 ( 88237 PWs)   bands (ev):

   -79.1878 -79.1609 -79.1287 -79.1271 -79.1247 -79.1228 -79.1207 -79.1088
   -79.0952 -79.0792 -79.0786 -79.0772 -79.0767 -79.0759 -79.0739 -79.0734
   -79.0728 -79.0716 -79.0710 -79.0686 -79.0678 -79.0668 -79.0648 -79.0539
   -79.0535 -79.0529 -79.0514 -79.0486 -79.0480 -79.0470 -79.0454 -79.0389
   -47.3245 -47.3234 -47.3230 -47.2643 -47.2631 -47.2622 -47.2148 -47.2138
   -47.2127 -47.2123 -47.2101 -47.2085 -47.1814 -47.1779 -47.1774 -47.1770
   -47.1767 -47.1761 -47.0896 -47.0651 -47.0640 -47.0607 -47.0592 -47.0577
   -47.0554 -47.0355 -47.0350 -47.0300 -47.0267 -47.0264 -47.0217 -47.0043
   -47.0030 -46.9996 -46.9983 -46.9944 -46.9928 -46.9195 -46.9192 -46.9125
   -46.9119 -46.9105 -46.9083 -46.8945 -46.8858 -46.8853 -46.8794 -46.8748
   -46.8732 -46.8710 -46.8702 -46.8697 -46.8261 -46.8148 -46.8143 -46.8114
   -46.8072 -46.8065 -46.8050 -46.8022 -46.8006 -46.7957 -46.7890 -46.7875
   -46.7851 -46.7831 -46.7818 -46.7813 -46.7795 -46.7785 -46.7281 -46.7278
   -46.7264 -46.7258 -46.7228 -46.7195 -46.7191 -46.7179 -46.6973 -46.6723
   -46.6719 -46.6700 -46.6670 -46.6668 -46.6611 -46.6604 -46.6594 -46.6589
   -46.6563 -46.6273 -46.6238 -46.6219 -46.6208 -46.6206 -46.6172 -46.6130
   -26.3414 -24.5297 -21.7976 -21.4606 -16.7307 -14.1409 -12.1265 -10.6146
    -9.3864  -9.2041  -8.9045  -8.5603  -8.1260  -7.9964  -7.5217  -7.0708
    -6.7725  -6.5179  -6.2638  -6.1434  -6.0277  -6.0264  -6.0258  -5.7516
    -5.6743  -5.6729  -5.6720  -5.6708  -5.6672  -5.6609  -5.6420  -5.6406
    -5.6358  -5.3419  -5.3354  -5.3291  -5.1204  -5.1187  -5.1171  -5.1158
    -5.1123  -5.1069  -5.1027  -5.1015  -5.0989  -5.0959  -5.0935  -5.0874
    -4.9372  -4.6701  -4.6650  -4.6574  -4.6539  -4.6519  -4.6463  -4.5488
    -4.5469  -4.5411  -4.5404  -4.5388  -4.5358  -4.4205  -4.3944  -4.3879
    -4.3850  -4.3848  -4.3759  -4.0935  -3.9595  -3.8628  -3.7062  -3.6976
    -3.6827  -3.4582  -3.4576  -3.4572  -3.4557  -3.4530  -3.4410  -3.3923
    -3.3886  -3.3878  -3.3851  -3.3781  -3.3543  -3.3407  -3.2383  -3.2380
    -3.2153  -3.2129  -3.2056  -3.2017  -3.1985  -3.1910  -3.0958  -3.0584
    -3.0577  -3.0152  -2.9643  -2.9622  -2.9608  -2.9583  -2.9548  -2.9509
    -2.9199  -2.9163  -2.9132  -2.9096  -2.8874  -2.8653  -2.6356  -2.6300
    -2.6264  -2.6239  -2.6223  -2.6115  -2.5975  -2.5947  -2.5882  -2.5584
    -2.5565  -2.5553  -2.5448  -2.5344  -2.5189  -2.3566  -2.3545  -2.3528
    -2.3490  -2.3427  -2.3407  -1.7675  -1.7538  -1.7518  -1.7479  -1.7419
    -1.7415  -1.6925  -1.6886  -1.6851  -1.6781  -1.6674  -1.6199  -1.5319
    -1.4983  -1.4938  -1.4271  -1.2660  -1.2625  -1.1824  -1.1761  -1.1740
    -1.1701  -1.1661  -1.1647  -1.1458  -1.1448  -1.1441  -1.1351  -1.1343
    -1.1307  -0.9851  -0.9813  -0.9779  -0.9705  -0.9650  -0.9523  -0.9379
    -0.9330  -0.8840  -0.4645  -0.4634  -0.4580  -0.2443  -0.2423  -0.2189
    -0.2172  -0.2133  -0.2116

          k = 0.0000-0.0537 0.0000 ( 88092 PWs)   bands (ev):

   -79.1856 -79.1586 -79.1481 -79.1349 -79.1235 -79.1018 -79.1006 -79.0987
   -79.0977 -79.0943 -79.0911 -79.0878 -79.0834 -79.0801 -79.0765 -79.0729
   -79.0719 -79.0702 -79.0664 -79.0632 -79.0601 -79.0592 -79.0576 -79.0573
   -79.0553 -79.0537 -79.0529 -79.0499 -79.0487 -79.0473 -79.0459 -79.0392
   -47.2812 -47.2791 -47.2769 -47.2749 -47.2475 -47.2456 -47.2271 -47.2258
   -47.2238 -47.2219 -47.2197 -47.2180 -47.1952 -47.1921 -47.1712 -47.1694
   -47.1546 -47.1533 -47.1513 -47.1487 -47.1272 -47.1213 -47.1207 -47.1174
   -47.0709 -47.0679 -47.0594 -47.0461 -47.0377 -47.0346 -46.9830 -46.9778
   -46.9617 -46.9563 -46.9453 -46.9403 -46.9383 -46.9358 -46.9189 -46.9054
   -46.9015 -46.8986 -46.8759 -46.8700 -46.8643 -46.8627 -46.8595 -46.8544
   -46.8488 -46.8468 -46.8459 -46.8410 -46.8374 -46.8364 -46.8345 -46.8308
   -46.8191 -46.8160 -46.7939 -46.7893 -46.7865 -46.7846 -46.7833 -46.7818
   -46.7802 -46.7794 -46.7779 -46.7767 -46.7659 -46.7630 -46.7523 -46.7487
   -46.7473 -46.7406 -46.7334 -46.7307 -46.7219 -46.7190 -46.7026 -46.6903
   -46.6809 -46.6792 -46.6777 -46.6701 -46.6639 -46.6634 -46.6500 -46.6476
   -46.6415 -46.6342 -46.6317 -46.6310 -46.6195 -46.6165 -46.6155 -46.6119
   -26.3414 -24.5297 -21.7976 -21.4606 -16.7307 -14.1409 -12.1265 -10.6146
    -9.3865  -9.2040  -8.9045  -8.5603  -8.1260  -7.9962  -7.5217  -6.7862
    -6.5599  -6.5422  -6.4890  -6.2629  -5.8328  -5.8286  -5.7496  -5.7177
    -5.7095  -5.6821  -5.6783  -5.6116  -5.6102  -5.6080  -5.6074  -5.4322
    -5.4268  -5.3216  -5.3205  -5.3154  -5.3129  -5.2141  -5.2130  -5.2114
    -5.2082  -5.1270  -5.1242  -5.1238  -5.1185  -5.0950  -5.0830  -5.0760
    -5.0740  -4.9886  -4.9849  -4.9327  -4.8704  -4.8689  -4.8615  -4.8595
    -4.7080  -4.7048  -4.7034  -4.6985  -4.6095  -4.6068  -4.5392  -4.5376
    -4.1248  -4.0818  -4.0651  -3.9619  -3.8960  -3.8308  -3.7960  -3.6199
    -3.6084  -3.5732  -3.5688  -3.5593  -3.5552  -3.5410  -3.5218  -3.4441
    -3.4418  -3.4329  -3.4268  -3.4131  -3.4067  -3.3993  -3.3969  -3.3901
    -3.3774  -3.2460  -3.2346  -3.2094  -3.2031  -3.1986  -3.1843  -3.1812
    -3.1745  -3.0878  -3.0017  -2.9043  -2.8968  -2.8866  -2.8849  -2.8585
    -2.8536  -2.8242  -2.8161  -2.8051  -2.8029  -2.7728  -2.7371  -2.7248
    -2.7219  -2.6666  -2.6506  -2.5352  -2.5195  -2.4983  -2.4903  -2.3262
    -2.3173  -2.3127  -2.3096  -2.3016  -2.2964  -2.1929  -2.1625  -1.9823
    -1.9813  -1.9791  -1.9753  -1.9491  -1.9399  -1.8882  -1.8812  -1.7141
    -1.6888  -1.5547  -1.5527  -1.5512  -1.5463  -1.3948  -1.3880  -1.3848
    -1.3822  -1.3787  -1.3755  -1.3693  -1.3634  -1.3393  -1.2495  -1.2011
    -1.1918  -1.0595  -1.0507  -0.8560  -0.8520  -0.8494  -0.8435  -0.7481
    -0.7437  -0.7408  -0.7391  -0.6533  -0.6476  -0.6358  -0.6333  -0.6295
    -0.6266  -0.5917  -0.5865  -0.4935  -0.4905  -0.4410  -0.4192  -0.4008
    -0.3800  -0.3688  -0.3623

          k = 0.0465-0.0268 0.0000 ( 88092 PWs)   bands (ev):

   -79.1856 -79.1585 -79.1481 -79.1347 -79.1241 -79.1028 -79.1000 -79.0979
   -79.0970 -79.0944 -79.0918 -79.0873 -79.0826 -79.0810 -79.0752 -79.0734
   -79.0729 -79.0714 -79.0657 -79.0630 -79.0605 -79.0586 -79.0580 -79.0570
   -79.0566 -79.0526 -79.0512 -79.0500 -79.0500 -79.0475 -79.0457 -79.0393
   -47.2796 -47.2791 -47.2762 -47.2758 -47.2513 -47.2438 -47.2271 -47.2258
   -47.2228 -47.2226 -47.2200 -47.2173 -47.1963 -47.1917 -47.1718 -47.1679
   -47.1537 -47.1531 -47.1515 -47.1490 -47.1280 -47.1220 -47.1203 -47.1184
   -47.0698 -47.0686 -47.0592 -47.0453 -47.0375 -47.0354 -46.9824 -46.9770
   -46.9607 -46.9565 -46.9461 -46.9408 -46.9398 -46.9347 -46.9195 -46.9031
   -46.9016 -46.8983 -46.8758 -46.8695 -46.8644 -46.8626 -46.8599 -46.8541
   -46.8490 -46.8480 -46.8460 -46.8413 -46.8381 -46.8370 -46.8338 -46.8301
   -46.8202 -46.8160 -46.7952 -46.7887 -46.7876 -46.7839 -46.7834 -46.7822
   -46.7807 -46.7794 -46.7781 -46.7745 -46.7651 -46.7641 -46.7518 -46.7485
   -46.7453 -46.7409 -46.7343 -46.7305 -46.7219 -46.7193 -46.7046 -46.6905
   -46.6804 -46.6776 -46.6767 -46.6688 -46.6654 -46.6631 -46.6514 -46.6497
   -46.6406 -46.6343 -46.6313 -46.6291 -46.6198 -46.6165 -46.6155 -46.6124
   -26.3414 -24.5297 -21.7976 -21.4606 -16.7306 -14.1409 -12.1265 -10.6146
    -9.3864  -9.2040  -8.9045  -8.5603  -8.1260  -7.9962  -7.5217  -6.7867
    -6.5781  -6.5374  -6.4736  -6.2604  -5.8316  -5.8283  -5.7552  -5.7161
    -5.7108  -5.6821  -5.6769  -5.6163  -5.6142  -5.6075  -5.6029  -5.4310
    -5.4229  -5.3212  -5.3202  -5.3178  -5.3114  -5.2174  -5.2150  -5.2101
    -5.2085  -5.1363  -5.1263  -5.1234  -5.1197  -5.0852  -5.0776  -5.0741
    -5.0722  -4.9890  -4.9859  -4.9356  -4.8687  -4.8673  -4.8642  -4.8627
    -4.7152  -4.7032  -4.7019  -4.6905  -4.6074  -4.6062  -4.5382  -4.5375
    -4.1557  -4.0801  -4.0600  -3.9640  -3.9034  -3.8130  -3.7953  -3.6215
    -3.6079  -3.5701  -3.5685  -3.5608  -3.5440  -3.5366  -3.5259  -3.4514
    -3.4408  -3.4279  -3.4243  -3.4209  -3.4109  -3.4004  -3.3971  -3.3916
    -3.3779  -3.2410  -3.2373  -3.2068  -3.1992  -3.1887  -3.1856  -3.1808
    -3.1683  -3.0914  -3.0053  -2.9085  -2.9001  -2.8863  -2.8833  -2.8619
    -2.8503  -2.8217  -2.8148  -2.8043  -2.8032  -2.7628  -2.7394  -2.7289
    -2.7185  -2.6663  -2.6586  -2.5332  -2.5269  -2.4941  -2.4908  -2.3264
    -2.3232  -2.3092  -2.3083  -2.2985  -2.2975  -2.1983  -2.1618  -1.9854
    -1.9822  -1.9762  -1.9710  -1.9496  -1.9464  -1.8855  -1.8808  -1.7045
    -1.6949  -1.5572  -1.5540  -1.5466  -1.5400  -1.3972  -1.3907  -1.3858
    -1.3810  -1.3779  -1.3761  -1.3688  -1.3620  -1.3568  -1.2377  -1.2006
    -1.1879  -1.0575  -1.0528  -0.8581  -0.8517  -0.8484  -0.8460  -0.7478
    -0.7438  -0.7410  -0.7395  -0.6529  -0.6478  -0.6363  -0.6304  -0.6285
    -0.6274  -0.5917  -0.5880  -0.4903  -0.4889  -0.4509  -0.4175  -0.3987
    -0.3807  -0.3693  -0.3612

          k =-0.0465-0.0268 0.0000 ( 88092 PWs)   bands (ev):

   -79.1857 -79.1581 -79.1487 -79.1350 -79.1231 -79.1016 -79.1002 -79.0990
   -79.0983 -79.0949 -79.0906 -79.0875 -79.0824 -79.0799 -79.0767 -79.0738
   -79.0722 -79.0703 -79.0665 -79.0631 -79.0597 -79.0595 -79.0579 -79.0571
   -79.0549 -79.0536 -79.0523 -79.0495 -79.0488 -79.0477 -79.0468 -79.0390
   -47.2819 -47.2804 -47.2763 -47.2739 -47.2479 -47.2444 -47.2282 -47.2263
   -47.2222 -47.2211 -47.2193 -47.2183 -47.1965 -47.1910 -47.1717 -47.1702
   -47.1544 -47.1529 -47.1520 -47.1488 -47.1275 -47.1222 -47.1202 -47.1164
   -47.0706 -47.0685 -47.0590 -47.0449 -47.0380 -47.0355 -46.9828 -46.9780
   -46.9617 -46.9566 -46.9462 -46.9404 -46.9372 -46.9351 -46.9187 -46.9054
   -46.9015 -46.9001 -46.8759 -46.8709 -46.8646 -46.8616 -46.8588 -46.8549
   -46.8486 -46.8463 -46.8454 -46.8406 -46.8375 -46.8364 -46.8351 -46.8302
   -46.8190 -46.8157 -46.7948 -46.7897 -46.7863 -46.7847 -46.7837 -46.7810
   -46.7799 -46.7791 -46.7778 -46.7770 -46.7667 -46.7626 -46.7530 -46.7482
   -46.7474 -46.7406 -46.7333 -46.7303 -46.7218 -46.7193 -46.7019 -46.6909
   -46.6815 -46.6799 -46.6771 -46.6703 -46.6638 -46.6616 -46.6504 -46.6483
   -46.6415 -46.6347 -46.6318 -46.6307 -46.6184 -46.6166 -46.6157 -46.6122
   -26.3414 -24.5297 -21.7976 -21.4606 -16.7306 -14.1408 -12.1265 -10.6146
    -9.3865  -9.2040  -8.9045  -8.5603  -8.1260  -7.9962  -7.5217  -6.7869
    -6.5735  -6.5388  -6.4768  -6.2609  -5.8346  -5.8264  -5.7526  -5.7164
    -5.7117  -5.6843  -5.6756  -5.6131  -5.6110  -5.6082  -5.6060  -5.4335
    -5.4253  -5.3215  -5.3199  -5.3163  -5.3140  -5.2180  -5.2128  -5.2107
    -5.2088  -5.1365  -5.1259  -5.1220  -5.1216  -5.0849  -5.0795  -5.0745
    -5.0684  -4.9894  -4.9844  -4.9338  -4.8705  -4.8675  -4.8612  -4.8585
    -4.7181  -4.7051  -4.7031  -4.6918  -4.6085  -4.6023  -4.5422  -4.5372
    -4.1433  -4.0779  -4.0612  -3.9636  -3.9030  -3.8188  -3.7949  -3.6197
    -3.6081  -3.5723  -3.5693  -3.5570  -3.5561  -3.5406  -3.5208  -3.4445
    -3.4423  -3.4290  -3.4264  -3.4137  -3.4059  -3.3991  -3.3963  -3.3888
    -3.3885  -3.2461  -3.2341  -3.2067  -3.2030  -3.1997  -3.1834  -3.1811
    -3.1688  -3.0905  -3.0018  -2.9066  -2.8945  -2.8859  -2.8838  -2.8592
    -2.8535  -2.8242  -2.8132  -2.8097  -2.8004  -2.7690  -2.7407  -2.7242
    -2.7228  -2.6657  -2.6549  -2.5356  -2.5233  -2.5000  -2.4885  -2.3249
    -2.3169  -2.3108  -2.3087  -2.3005  -2.2973  -2.1943  -2.1629  -1.9826
    -1.9805  -1.9789  -1.9720  -1.9493  -1.9443  -1.8874  -1.8813  -1.7095
    -1.6902  -1.5575  -1.5523  -1.5475  -1.5454  -1.3954  -1.3898  -1.3846
    -1.3831  -1.3786  -1.3750  -1.3667  -1.3632  -1.3451  -1.2473  -1.2000
    -1.1908  -1.0594  -1.0509  -0.8548  -0.8534  -0.8517  -0.8438  -0.7493
    -0.7417  -0.7411  -0.7389  -0.6522  -0.6465  -0.6353  -0.6327  -0.6299
    -0.6274  -0.5918  -0.5884  -0.4964  -0.4896  -0.4460  -0.4158  -0.4007
    -0.3776  -0.3691  -0.3616

     the Fermi energy is    -0.5780 ev

!    total energy              =  -15236.13615187 Ry
     Harris-Foulkes estimate   =  -15236.13615242 Ry
     estimated scf accuracy    <       0.00000051 Ry

     The total energy is the sum of the following terms:

     one-electron contribution =  -77364.90694550 Ry
     hartree contribution      =   38679.97692142 Ry
     xc contribution           =    -998.52087490 Ry
     ewald contribution        =   32330.82707975 Ry
     one-center paw contrib.   =   -7883.36881647 Ry
     smearing contrib. (-TS)   =      -0.14351616 Ry

     convergence has been achieved in  28 iterations

     Forces acting on atoms (Ry/au):


     negative rho (up, down):  7.433E-02 0.000E+00
     atom    1 type  1   force =     0.00014917   -0.00015628   -0.00400679
     atom    2 type  1   force =     0.00007179   -0.00069336    0.00364641
     atom    3 type  1   force =    -0.00081437    0.00017091   -0.00429514
     atom    4 type  1   force =    -0.00013404    0.00035920    0.00268540
     atom    5 type  1   force =    -0.00039128   -0.00059421   -0.00471232
     atom    6 type  1   force =     0.00115403    0.00008679    0.00217829
     atom    7 type  1   force =     0.00008888    0.00019110   -0.00392707
     atom    8 type  1   force =    -0.00031755    0.00015485    0.00385775
     atom    9 type  1   force =    -0.00031175   -0.00032990   -0.00392208
     atom   10 type  1   force =     0.00015855   -0.00018207    0.00398357
     atom   11 type  1   force =    -0.00033602   -0.00005774   -0.00503789
     atom   12 type  1   force =     0.00044234   -0.00052440    0.00257301
     atom   13 type  1   force =    -0.00038412   -0.00015641   -0.00356084
     atom   14 type  1   force =     0.00036658   -0.00022123    0.01427766
     atom   15 type  1   force =    -0.00017986   -0.00011750   -0.00404179
     atom   16 type  1   force =     0.00031475   -0.00111828    0.00236049
     atom   17 type  1   force =     0.00027355    0.00075958   -0.00461926
     atom   18 type  1   force =    -0.00007628    0.00071951    0.00411850
     atom   19 type  1   force =     0.00106311   -0.00068470   -0.00481233
     atom   20 type  1   force =     0.00112256   -0.00050601    0.00427208
     atom   21 type  1   force =     0.00078925   -0.00047077   -0.00666087
     atom   22 type  1   force =     0.00130651   -0.00033051    0.00236764
     atom   23 type  1   force =    -0.00003969    0.00026598   -0.00425690
     atom   24 type  1   force =    -0.00006440    0.00041761    0.00283195
     atom   25 type  1   force =    -0.00040045    0.00070480   -0.00434134
     atom   26 type  1   force =     0.00001254    0.00016518    0.00394319
     atom   27 type  1   force =     0.00017008   -0.00011422   -0.00423048
     atom   28 type  1   force =    -0.00043682   -0.00008124    0.00409908
     atom   29 type  1   force =     0.00110372   -0.00044308   -0.00469675
     atom   30 type  1   force =     0.00031361   -0.00010302    0.00382694
     atom   31 type  1   force =     0.00000574    0.00019451   -0.00518926
     atom   32 type  1   force =     0.00081068    0.00029902    0.00356087
     atom   33 type  2   force =    -0.05633924    0.01344450    0.01005797
     atom   34 type  2   force =    -0.01053534   -0.09663036    0.00776270
     atom   35 type  2   force =    -0.93062618   -0.03200469    0.68362428
     atom   36 type  2   force =     0.04335331   -0.04488407    0.40318751
     atom   37 type  3   force =     0.02732185    0.02780156   -0.02892252
     atom   38 type  3   force =     0.01386299    0.15690406   -0.03400274
     atom   39 type  3   force =     0.95281995    0.02410451   -0.70482264
     atom   40 type  3   force =    -0.04366644    0.06667016   -0.46885192
     atom   41 type  3   force =    -0.00256215   -0.14386486    0.08942408
     atom   42 type  4   force =    -0.02935603   -0.03399121    0.01844141
     atom   43 type  4   force =    -0.01817924    0.01596345    0.01581944
     atom   44 type  4   force =     0.00219634    0.00059327    0.00052970
     atom   45 type  4   force =    -0.00390511    0.00394827   -0.03380521
     atom   46 type  4   force =     0.04055788   -0.00570828    0.00617993
     atom   47 type  4   force =     0.00922660    0.05004958    0.04310629

     Total force =     1.792634     Total SCF correction =     0.002234
 !ASE

     Writing output data file calc.save
     Check: negative starting charge=   -0.064457
     NEW-OLD atomic charge density approx. for the potential

     Check: negative/imaginary core charge=   -0.000001    0.000000
     Check: negative starting charge=   -0.062023

     negative rho (up, down):  7.087E-02 0.000E+00

     total cpu time spent up to now is     8143.0 secs

     per-process dynamical memory:   439.3 Mb

     Self-consistent Calculation

     iteration #  1     ecut=    40.42 Ry     beta=0.20
     Davidson diagonalization with overlap
     c_bands:  2 eigenvalues not converged
     ethr =  1.64E-10,  avg # of iterations = 19.8

     negative rho (up, down):  7.272E-02 0.000E+00

     total cpu time spent up to now is     8596.5 secs

     total energy              =  -15236.38673777 Ry
     Harris-Foulkes estimate   =  -15236.61021502 Ry
     estimated scf accuracy    <       0.08762374 Ry

     iteration #  2     ecut=    40.42 Ry     beta=0.20
     Davidson diagonalization with overlap
     ethr =  1.48E-05,  avg # of iterations =  1.0

     negative rho (up, down):  8.194E-02 0.000E+00

     total cpu time spent up to now is     8694.7 secs

     total energy              =  -15236.35593467 Ry
     Harris-Foulkes estimate   =  -15236.38708856 Ry
     estimated scf accuracy    <       0.06282971 Ry

     iteration #  3     ecut=    40.42 Ry     beta=0.20
     Davidson diagonalization with overlap
     ethr =  1.06E-05,  avg # of iterations =  3.0

     negative rho (up, down):  8.596E-02 0.000E+00

     total cpu time spent up to now is     8805.4 secs

     total energy              =  -15236.35732219 Ry
     Harris-Foulkes estimate   =  -15236.36043982 Ry
     estimated scf accuracy    <       0.01374351 Ry

     iteration #  4     ecut=    40.42 Ry     beta=0.20
     Davidson diagonalization with overlap
     ethr =  2.31E-06,  avg # of iterations =  3.0

     negative rho (up, down):  8.772E-02 0.000E+00

     total cpu time spent up to now is     8911.3 secs

     total energy              =  -15236.35766472 Ry
     Harris-Foulkes estimate   =  -15236.35802276 Ry
     estimated scf accuracy    <       0.00512082 Ry

     iteration #  5     ecut=    40.42 Ry     beta=0.20
     Davidson diagonalization with overlap
     ethr =  8.62E-07,  avg # of iterations =  4.2

     negative rho (up, down):  8.823E-02 0.000E+00

     total cpu time spent up to now is     9016.5 secs

     total energy              =  -15236.35710511 Ry
     Harris-Foulkes estimate   =  -15236.35779196 Ry
     estimated scf accuracy    <       0.00384424 Ry

     iteration #  6     ecut=    40.42 Ry     beta=0.20
     Davidson diagonalization with overlap
     ethr =  6.47E-07,  avg # of iterations =  3.0

     negative rho (up, down):  8.911E-02 0.000E+00

     total cpu time spent up to now is     9120.9 secs

     total energy              =  -15236.35695334 Ry
     Harris-Foulkes estimate   =  -15236.35722032 Ry
     estimated scf accuracy    <       0.00259199 Ry

     iteration #  7     ecut=    40.42 Ry     beta=0.20
     Davidson diagonalization with overlap
     ethr =  4.36E-07,  avg # of iterations =  9.8

     negative rho (up, down):  8.926E-02 0.000E+00

     total cpu time spent up to now is     9237.1 secs

     total energy              =  -15236.35686000 Ry
     Harris-Foulkes estimate   =  -15236.35701264 Ry
     estimated scf accuracy    <       0.00199560 Ry

     iteration #  8     ecut=    40.42 Ry     beta=0.20
     Davidson diagonalization with overlap
     ethr =  3.36E-07,  avg # of iterations =  2.0

     negative rho (up, down):  8.880E-02 0.000E+00

     total cpu time spent up to now is     9341.8 secs

     total energy              =  -15236.35670086 Ry
     Harris-Foulkes estimate   =  -15236.35688339 Ry
     estimated scf accuracy    <       0.00170494 Ry

     iteration #  9     ecut=    40.42 Ry     beta=0.20
     Davidson diagonalization with overlap
     ethr =  2.87E-07,  avg # of iterations =  2.2

     negative rho (up, down):  8.721E-02 0.000E+00

     total cpu time spent up to now is     9446.0 secs

     total energy              =  -15236.35655962 Ry
     Harris-Foulkes estimate   =  -15236.35672316 Ry
     estimated scf accuracy    <       0.00146859 Ry

     iteration # 10     ecut=    40.42 Ry     beta=0.20
     Davidson diagonalization with overlap
     ethr =  2.47E-07,  avg # of iterations =  2.0

     negative rho (up, down):  8.434E-02 0.000E+00

     total cpu time spent up to now is     9546.6 secs

     total energy              =  -15236.35623586 Ry
     Harris-Foulkes estimate   =  -15236.35657354 Ry
     estimated scf accuracy    <       0.00128678 Ry

     iteration # 11     ecut=    40.42 Ry     beta=0.20
     Davidson diagonalization with overlap
     ethr =  2.17E-07,  avg # of iterations =  9.2

     negative rho (up, down):  8.230E-02 0.000E+00

     total cpu time spent up to now is     9663.4 secs

     total energy              =  -15236.35610283 Ry
     Harris-Foulkes estimate   =  -15236.35627810 Ry
     estimated scf accuracy    <       0.00084511 Ry

     iteration # 12     ecut=    40.42 Ry     beta=0.20
     Davidson diagonalization with overlap
     ethr =  1.42E-07,  avg # of iterations =  5.5

     negative rho (up, down):  8.014E-02 0.000E+00

     total cpu time spent up to now is     9770.5 secs

     total energy              =  -15236.35595564 Ry
     Harris-Foulkes estimate   =  -15236.35613228 Ry
     estimated scf accuracy    <       0.00049292 Ry

     iteration # 13     ecut=    40.42 Ry     beta=0.20
     Davidson diagonalization with overlap
     c_bands:  1 eigenvalues not converged
     c_bands:  1 eigenvalues not converged
     c_bands:  2 eigenvalues not converged
     ethr =  8.30E-08,  avg # of iterations = 15.8

     negative rho (up, down):  7.928E-02 0.000E+00

     total cpu time spent up to now is     9903.4 secs

     total energy              =  -15236.35594309 Ry
     Harris-Foulkes estimate   =  -15236.35598909 Ry
     estimated scf accuracy    <       0.00028102 Ry

     iteration # 14     ecut=    40.42 Ry     beta=0.20
     Davidson diagonalization with overlap
     ethr =  4.73E-08,  avg # of iterations = 10.2

     negative rho (up, down):  7.795E-02 0.000E+00

     total cpu time spent up to now is    10019.7 secs

     total energy              =  -15236.35589884 Ry
     Harris-Foulkes estimate   =  -15236.35595212 Ry
     estimated scf accuracy    <       0.00018189 Ry

     iteration # 15     ecut=    40.42 Ry     beta=0.20
     Davidson diagonalization with overlap
     ethr =  3.06E-08,  avg # of iterations =  4.8

     negative rho (up, down):  7.765E-02 0.000E+00

     total cpu time spent up to now is    10127.8 secs

     total energy              =  -15236.35589524 Ry
     Harris-Foulkes estimate   =  -15236.35590990 Ry
     estimated scf accuracy    <       0.00014075 Ry

[...]
    -6.3223  -6.2854  -6.2645  -6.2011  -6.1417  -6.1415  -5.9758  -5.9702
    -5.9668  -5.9039  -5.8551  -5.8064  -5.7954  -5.7813  -5.7722  -5.7423
    -5.5184  -5.5021  -5.5013  -5.4993  -5.4881  -5.4566  -5.4562  -5.3652
    -5.3638  -5.3524  -5.3062  -5.3050  -5.2917  -5.2911  -5.2779  -5.2771
    -5.0895  -5.0891  -5.0332  -5.0316  -4.9854  -4.9603  -4.9600  -4.8823
    -4.8780  -4.8736  -4.8291  -4.8286  -4.7934  -4.7919  -4.7638  -4.7631
    -4.4078  -4.4062  -4.1920  -4.0354  -4.0251  -4.0248  -3.9785  -3.9651
    -3.9477  -3.9207  -3.7907  -3.7889  -3.7625  -3.7363  -3.7281  -3.7273
    -3.7241  -3.7172  -3.6786  -3.6773  -3.6723  -3.5650  -3.5277  -3.5260
    -3.5072  -3.5045  -3.4845  -3.4843  -3.4341  -3.4195  -3.4041  -3.3044
    -3.3039  -3.2900  -3.2875  -3.2828  -3.2798  -3.2382  -3.0909  -3.0897
    -3.0710  -3.0633  -2.9523  -2.9520  -2.9048  -2.8988  -2.8822  -2.8807
    -2.8723  -2.8688  -2.8648  -2.8346  -2.8217  -2.8215  -2.8020  -2.7594
    -2.7288  -2.5887  -2.5845  -2.5829  -2.5422  -2.5356  -2.5170  -2.5094
    -2.4777  -2.4771  -2.3167  -2.2144  -2.1629  -2.1621  -2.1292  -2.0866
    -2.0738  -2.0380  -1.9624  -1.9498  -1.9370  -1.9284  -1.9195  -1.7324
    -1.7093  -1.6189  -1.6177  -1.5902  -1.5499  -1.5436  -1.5427  -1.5405
    -1.5204  -1.5197  -1.4268  -1.4261  -1.4109  -1.3951  -1.3942  -1.3887
    -1.3499  -1.3482  -1.3065  -1.3016  -1.2881  -1.1867  -1.1827  -1.0572
    -1.0369  -1.0362  -1.0172  -0.9421  -0.9409  -0.8692  -0.7262  -0.7250
    -0.6996  -0.6986  -0.6176

          k = 0.0465-0.0268 0.0000 ( 88092 PWs)   bands (ev):

   -79.4808 -79.4793 -79.4596 -79.4563 -79.4339 -79.4277 -79.4257 -79.4240
   -79.4234 -79.4231 -79.4171 -79.4137 -79.4118 -79.4114 -79.4013 -79.3996
   -79.3982 -79.3976 -79.3945 -79.3918 -79.3916 -79.3907 -79.3871 -79.3861
   -79.3860 -79.3848 -79.3812 -79.3807 -79.3797 -79.3785 -79.3778 -79.3759
   -47.5887 -47.5883 -47.5880 -47.5878 -47.5569 -47.5559 -47.5433 -47.5427
   -47.5425 -47.5424 -47.5318 -47.5303 -47.5103 -47.5095 -47.4871 -47.4858
   -47.4635 -47.4631 -47.4621 -47.4610 -47.4380 -47.4362 -47.4357 -47.4344
   -47.3806 -47.3787 -47.3339 -47.3321 -47.3268 -47.3253 -47.3127 -47.3110
   -47.2759 -47.2741 -47.2562 -47.2547 -47.2536 -47.2530 -47.2158 -47.2128
   -47.2126 -47.2121 -47.1906 -47.1905 -47.1824 -47.1820 -47.1795 -47.1790
   -47.1770 -47.1764 -47.1621 -47.1581 -47.1579 -47.1572 -47.1567 -47.1552
   -47.1359 -47.1351 -47.1186 -47.1169 -47.1168 -47.1157 -47.1092 -47.1072
   -47.1055 -47.1046 -47.1034 -47.1022 -47.0992 -47.0989 -47.0706 -47.0702
   -47.0685 -47.0652 -47.0651 -47.0645 -47.0543 -47.0531 -47.0239 -47.0203
   -47.0121 -47.0116 -47.0032 -46.9995 -46.9975 -46.9963 -46.9853 -46.9842
   -46.9758 -46.9717 -46.9711 -46.9704 -46.9614 -46.9600 -46.9593 -46.9589
   -23.7526 -23.4602 -21.4885 -21.1394 -16.5181 -14.2551 -12.4584 -11.2655
    -9.5470  -8.3179  -8.1864  -7.9068  -7.6085  -7.2514  -6.8016  -6.8003
    -6.7238  -6.3219  -6.0604  -6.0597  -5.9839  -5.9722  -5.9651  -5.9223
    -5.9208  -5.8321  -5.8308  -5.8303  -5.8301  -5.7706  -5.7011  -5.6944
    -5.5487  -5.5483  -5.5478  -5.5461  -5.4742  -5.4740  -5.4732  -5.4721
    -5.3655  -5.3447  -5.3436  -5.3430  -5.3317  -5.2928  -5.2901  -5.2680
    -5.2675  -5.2107  -5.2092  -5.1253  -5.1243  -5.1241  -5.1228  -4.9169
    -4.9164  -4.9160  -4.9132  -4.8775  -4.8262  -4.8250  -4.7665  -4.7661
    -4.3271  -4.3253  -4.0944  -4.0829  -3.9843  -3.9185  -3.9178  -3.9177
    -3.9035  -3.8991  -3.8943  -3.8854  -3.8740  -3.7490  -3.7459  -3.7405
    -3.7392  -3.7383  -3.7360  -3.7349  -3.7267  -3.6795  -3.6787  -3.6721
    -3.5848  -3.5828  -3.5223  -3.5199  -3.4592  -3.4557  -3.4552  -3.4537
    -3.1171  -3.1164  -3.1053  -3.1036  -3.1028  -3.1019  -3.0975  -3.0933
    -3.0932  -3.0924  -3.0902  -3.0857  -2.9824  -2.9814  -2.9503  -2.9497
    -2.8574  -2.8492  -2.8474  -2.6838  -2.6831  -2.6223  -2.6088  -2.6076
    -2.6071  -2.6055  -2.5847  -2.5729  -2.5160  -2.4664  -2.3160  -2.2819
    -2.2798  -2.2797  -2.2767  -2.2519  -2.2451  -2.1678  -2.1667  -2.0466
    -2.0387  -1.8634  -1.8621  -1.8603  -1.8597  -1.7550  -1.7502  -1.7464
    -1.7411  -1.7335  -1.7310  -1.7282  -1.6841  -1.6834  -1.6798  -1.6161
    -1.6152  -1.4179  -1.4168  -1.1950  -1.1941  -1.1936  -1.1919  -1.1385
    -1.1366  -1.1357  -1.1354  -1.0098  -1.0093  -1.0090  -1.0069  -0.9858
    -0.9849  -0.9760  -0.9754  -0.8682  -0.8662  -0.7841  -0.7824  -0.7699
    -0.7387  -0.7270  -0.7252

          k =-0.0465-0.0268 0.0000 ( 88092 PWs)   bands (ev):

   -79.4807 -79.4794 -79.4597 -79.4563 -79.4336 -79.4277 -79.4260 -79.4240
   -79.4234 -79.4231 -79.4169 -79.4139 -79.4122 -79.4113 -79.4007 -79.3995
   -79.3982 -79.3978 -79.3947 -79.3918 -79.3913 -79.3910 -79.3874 -79.3863
   -79.3861 -79.3845 -79.3811 -79.3802 -79.3796 -79.3792 -79.3778 -79.3758
   -47.5886 -47.5883 -47.5880 -47.5879 -47.5567 -47.5560 -47.5430 -47.5428
   -47.5425 -47.5424 -47.5319 -47.5302 -47.5104 -47.5097 -47.4872 -47.4858
   -47.4636 -47.4632 -47.4620 -47.4612 -47.4377 -47.4364 -47.4354 -47.4345
   -47.3806 -47.3786 -47.3339 -47.3322 -47.3269 -47.3251 -47.3126 -47.3110
   -47.2759 -47.2740 -47.2558 -47.2546 -47.2536 -47.2534 -47.2162 -47.2134
   -47.2123 -47.2120 -47.1906 -47.1902 -47.1826 -47.1821 -47.1792 -47.1789
   -47.1771 -47.1766 -47.1616 -47.1581 -47.1580 -47.1570 -47.1566 -47.1555
   -47.1358 -47.1353 -47.1185 -47.1171 -47.1163 -47.1158 -47.1090 -47.1072
   -47.1054 -47.1052 -47.1035 -47.1024 -47.0991 -47.0988 -47.0706 -47.0701
   -47.0684 -47.0652 -47.0650 -47.0646 -47.0544 -47.0531 -47.0240 -47.0202
   -47.0121 -47.0116 -47.0031 -46.9994 -46.9973 -46.9970 -46.9848 -46.9841
   -46.9761 -46.9718 -46.9713 -46.9703 -46.9614 -46.9599 -46.9596 -46.9585
   -23.7526 -23.4602 -21.4885 -21.1394 -16.5181 -14.2551 -12.4584 -11.2655
    -9.5470  -8.3178  -8.1865  -7.9069  -7.6085  -7.2515  -6.8013  -6.8002
    -6.7242  -6.3216  -6.0605  -6.0597  -5.9795  -5.9731  -5.9693  -5.9223
    -5.9206  -5.8319  -5.8309  -5.8302  -5.8299  -5.7680  -5.7006  -5.6979
    -5.5484  -5.5483  -5.5479  -5.5462  -5.4755  -5.4732  -5.4732  -5.4712
    -5.3634  -5.3443  -5.3437  -5.3430  -5.3377  -5.2926  -5.2864  -5.2679
    -5.2666  -5.2106  -5.2094  -5.1251  -5.1249  -5.1238  -5.1228  -4.9178
    -4.9171  -4.9163  -4.9132  -4.8767  -4.8254  -4.8251  -4.7671  -4.7663
    -4.3268  -4.3255  -4.0881  -4.0852  -3.9863  -3.9191  -3.9186  -3.9171
    -3.9151  -3.8973  -3.8886  -3.8847  -3.8682  -3.7486  -3.7463  -3.7407
    -3.7398  -3.7370  -3.7368  -3.7354  -3.7307  -3.6801  -3.6787  -3.6729
    -3.5842  -3.5829  -3.5217  -3.5196  -3.4572  -3.4564  -3.4564  -3.4528
    -3.1170  -3.1164  -3.1049  -3.1039  -3.1030  -3.1029  -3.0991  -3.0933
    -3.0923  -3.0918  -3.0911  -3.0857  -2.9824  -2.9815  -2.9505  -2.9482
    -2.8591  -2.8501  -2.8431  -2.6839  -2.6830  -2.6236  -2.6084  -2.6079
    -2.6071  -2.6063  -2.5840  -2.5677  -2.5141  -2.4743  -2.3160  -2.2805
    -2.2801  -2.2788  -2.2767  -2.2522  -2.2481  -2.1676  -2.1666  -2.0471
    -2.0341  -1.8639  -1.8634  -1.8605  -1.8589  -1.7540  -1.7494  -1.7479
    -1.7441  -1.7315  -1.7279  -1.7244  -1.6869  -1.6833  -1.6831  -1.6162
    -1.6150  -1.4179  -1.4162  -1.1953  -1.1942  -1.1942  -1.1919  -1.1382
    -1.1367  -1.1358  -1.1350  -1.0097  -1.0088  -1.0086  -1.0082  -0.9865
    -0.9845  -0.9761  -0.9752  -0.8691  -0.8663  -0.7837  -0.7830  -0.7635
    -0.7446  -0.7265  -0.7261

          k =-0.0232 0.0403 0.0000 ( 88123 PWs)   bands (ev):

   -79.4832 -79.4720 -79.4705 -79.4441 -79.4405 -79.4317 -79.4268 -79.4239
   -79.4214 -79.4203 -79.4189 -79.4109 -79.4095 -79.4077 -79.4057 -79.4023
   -79.4014 -79.3959 -79.3928 -79.3923 -79.3912 -79.3898 -79.3891 -79.3848
   -79.3843 -79.3835 -79.3828 -79.3824 -79.3795 -79.3784 -79.3775 -79.3760
   -47.6064 -47.5848 -47.5847 -47.5704 -47.5702 -47.5568 -47.5410 -47.5403
   -47.5364 -47.5362 -47.5229 -47.5225 -47.5109 -47.5106 -47.4996 -47.4990
   -47.4931 -47.4698 -47.4695 -47.4626 -47.4372 -47.4254 -47.4216 -47.3761
   -47.3749 -47.3624 -47.3609 -47.3506 -47.3357 -47.3245 -47.3233 -47.3145
   -47.3139 -47.2624 -47.2433 -47.2430 -47.2340 -47.2339 -47.2247 -47.2128
   -47.2113 -47.2076 -47.2064 -47.1942 -47.1940 -47.1883 -47.1877 -47.1836
   -47.1675 -47.1660 -47.1630 -47.1624 -47.1472 -47.1452 -47.1446 -47.1375
   -47.1364 -47.1358 -47.1283 -47.1279 -47.1240 -47.1230 -47.1158 -47.1154
   -47.1144 -47.1007 -47.1003 -47.0975 -47.0878 -47.0872 -47.0868 -47.0856
   -47.0787 -47.0783 -47.0725 -47.0553 -47.0443 -47.0285 -47.0264 -47.0260
   -47.0120 -47.0106 -47.0096 -47.0064 -46.9938 -46.9906 -46.9867 -46.9851
   -46.9775 -46.9770 -46.9685 -46.9640 -46.9629 -46.9606 -46.9580 -46.9576
   -23.7526 -23.4602 -21.4885 -21.1394 -16.5181 -14.2551 -12.4584 -11.2655
    -9.5470  -8.3179  -8.1865  -7.9068  -7.6085  -7.2515  -6.9221  -6.7260
    -6.4554  -6.4545  -6.3216  -6.0399  -6.0397  -6.0268  -5.9715  -5.8813
    -5.8764  -5.8757  -5.7800  -5.6960  -5.6954  -5.6874  -5.6818  -5.6232
    -5.6218  -5.5851  -5.5801  -5.5264  -5.5197  -5.5191  -5.4990  -5.4968
    -5.4030  -5.3766  -5.3731  -5.3515  -5.3438  -5.3257  -5.3248  -5.1769
    -5.1737  -5.1660  -5.1656  -5.1612  -5.1296  -5.1289  -5.1217  -5.1203
    -4.9893  -4.9883  -4.8773  -4.8620  -4.7257  -4.6376  -4.6059  -4.6054
    -4.6038  -4.0722  -4.0671  -4.0496  -4.0444  -3.9926  -3.9481  -3.9463
    -3.9363  -3.9278  -3.8862  -3.8792  -3.8421  -3.8398  -3.8295  -3.8099
    -3.8036  -3.7944  -3.7939  -3.6977  -3.6948  -3.6752  -3.6679  -3.6483
    -3.6219  -3.6077  -3.6064  -3.5965  -3.5105  -3.4687  -3.4337  -3.4323
    -3.3081  -3.3052  -3.2245  -3.1984  -3.1475  -3.1463  -3.0533  -3.0265
    -3.0257  -2.9074  -2.9000  -2.8528  -2.8261  -2.8243  -2.7960  -2.7949
    -2.7770  -2.7763  -2.7537  -2.7455  -2.7443  -2.6465  -2.6360  -2.6331
    -2.6187  -2.6178  -2.6162  -2.5600  -2.5353  -2.5296  -2.3862  -2.3537
    -2.3521  -2.3142  -2.1997  -2.1962  -2.1636  -2.1622  -2.0983  -2.0919
    -2.0791  -2.0406  -2.0297  -1.8562  -1.8429  -1.7958  -1.7585  -1.7105
    -1.6761  -1.6440  -1.6365  -1.5988  -1.5961  -1.5673  -1.5671  -1.5514
    -1.5466  -1.5010  -1.4969  -1.3954  -1.3939  -1.3829  -1.3055  -1.1452
    -1.1314  -1.1305  -1.0609  -1.0600  -1.0450  -1.0012  -0.9960  -0.9930
    -0.9817  -0.9782  -0.9521  -0.9504  -0.8592  -0.8578  -0.8106  -0.8058
    -0.8047  -0.7850  -0.7782

          k = 0.0465-0.0000 0.0000 ( 88123 PWs)   bands (ev):

   -79.4832 -79.4721 -79.4704 -79.4442 -79.4403 -79.4319 -79.4267 -79.4241
   -79.4214 -79.4203 -79.4188 -79.4110 -79.4094 -79.4077 -79.4058 -79.4025
   -79.4012 -79.3958 -79.3929 -79.3922 -79.3914 -79.3899 -79.3892 -79.3847
   -79.3844 -79.3836 -79.3828 -79.3819 -79.3796 -79.3783 -79.3776 -79.3760
   -47.6064 -47.5848 -47.5847 -47.5705 -47.5702 -47.5567 -47.5409 -47.5402
   -47.5365 -47.5362 -47.5228 -47.5226 -47.5109 -47.5107 -47.4997 -47.4988
   -47.4931 -47.4698 -47.4696 -47.4627 -47.4372 -47.4255 -47.4216 -47.3760
   -47.3749 -47.3625 -47.3607 -47.3505 -47.3357 -47.3247 -47.3232 -47.3144
   -47.3139 -47.2625 -47.2432 -47.2430 -47.2342 -47.2338 -47.2247 -47.2128
   -47.2113 -47.2074 -47.2064 -47.1942 -47.1940 -47.1884 -47.1878 -47.1836
   -47.1676 -47.1659 -47.1628 -47.1624 -47.1473 -47.1453 -47.1444 -47.1375
   -47.1363 -47.1359 -47.1283 -47.1279 -47.1241 -47.1228 -47.1157 -47.1155
   -47.1144 -47.1006 -47.1003 -47.0975 -47.0880 -47.0871 -47.0868 -47.0857
   -47.0787 -47.0784 -47.0725 -47.0554 -47.0443 -47.0283 -47.0265 -47.0260
   -47.0120 -47.0105 -47.0097 -47.0065 -46.9936 -46.9908 -46.9869 -46.9850
   -46.9775 -46.9767 -46.9686 -46.9641 -46.9628 -46.9605 -46.9582 -46.9574
   -23.7526 -23.4602 -21.4885 -21.1394 -16.5181 -14.2551 -12.4584 -11.2655
    -9.5470  -8.3179  -8.1865  -7.9069  -7.6085  -7.2515  -6.9220  -6.7262
    -6.4558  -6.4541  -6.3216  -6.0400  -6.0397  -6.0269  -5.9711  -5.8810
    -5.8764  -5.8756  -5.7787  -5.6962  -5.6955  -5.6871  -5.6833  -5.6229
    -5.6223  -5.5851  -5.5813  -5.5265  -5.5196  -5.5189  -5.4988  -5.4967
    -5.4015  -5.3808  -5.3724  -5.3495  -5.3456  -5.3255  -5.3223  -5.1772
    -5.1756  -5.1658  -5.1651  -5.1612  -5.1295  -5.1276  -5.1219  -5.1208
    -4.9891  -4.9882  -4.8775  -4.8619  -4.7254  -4.6373  -4.6063  -4.6054
    -4.6043  -4.0716  -4.0674  -4.0504  -4.0459  -3.9920  -3.9476  -3.9424
    -3.9382  -3.9248  -3.8864  -3.8790  -3.8422  -3.8408  -3.8346  -3.8097
    -3.8041  -3.7942  -3.7890  -3.6988  -3.6960  -3.6733  -3.6691  -3.6483
    -3.6220  -3.6077  -3.6059  -3.5964  -3.5110  -3.4691  -3.4342  -3.4329
    -3.3094  -3.3043  -3.2243  -3.1985  -3.1471  -3.1459  -3.0533  -3.0268
    -3.0245  -2.9068  -2.8999  -2.8535  -2.8256  -2.8246  -2.7959  -2.7948
    -2.7780  -2.7765  -2.7538  -2.7451  -2.7445  -2.6443  -2.6359  -2.6347
    -2.6186  -2.6179  -2.6158  -2.5593  -2.5361  -2.5296  -2.3858  -2.3542
    -2.3530  -2.3145  -2.1985  -2.1965  -2.1640  -2.1618  -2.0971  -2.0920
    -2.0803  -2.0405  -2.0292  -1.8544  -1.8446  -1.7965  -1.7578  -1.7104
    -1.6757  -1.6431  -1.6381  -1.5988  -1.5962  -1.5673  -1.5670  -1.5514
    -1.5471  -1.5010  -1.4970  -1.3950  -1.3942  -1.3826  -1.3056  -1.1452
    -1.1314  -1.1305  -1.0609  -1.0600  -1.0450  -1.0006  -0.9959  -0.9935
    -0.9818  -0.9786  -0.9519  -0.9506  -0.8594  -0.8576  -0.8107  -0.8058
    -0.8046  -0.7855  -0.7770

     the Fermi energy is    -0.9772 ev

!    total energy              =  -15236.38215613 Ry
     Harris-Foulkes estimate   =  -15236.38215587 Ry
     estimated scf accuracy    <       0.00000029 Ry

     The total energy is the sum of the following terms:

     one-electron contribution =  -76513.88689441 Ry
     hartree contribution      =   38248.65754855 Ry
     xc contribution           =    -997.63895302 Ry
     ewald contribution        =   31909.98839457 Ry
     one-center paw contrib.   =   -7883.35849461 Ry
     smearing contrib. (-TS)   =      -0.14375721 Ry

     convergence has been achieved in   8 iterations

     Forces acting on atoms (Ry/au):


     negative rho (up, down):  7.090E-02 0.000E+00
     atom    1 type  1   force =    -0.00014426    0.00005779    0.01350394
     atom    2 type  1   force =     0.00009862    0.00006996   -0.01329508
     atom    3 type  1   force =    -0.00019022   -0.00000747    0.01351033
     atom    4 type  1   force =    -0.00068997   -0.00086611   -0.01386266
     atom    5 type  1   force =    -0.00034183   -0.00027751    0.01314810
     atom    6 type  1   force =    -0.00150572   -0.00008837   -0.01453710
     atom    7 type  1   force =     0.00011956   -0.00008085    0.01343483
     atom    8 type  1   force =     0.00014334   -0.00010208   -0.01307579
     atom    9 type  1   force =     0.00004600   -0.00012276    0.01344804
     atom   10 type  1   force =    -0.00013476   -0.00006791   -0.01334097
     atom   11 type  1   force =    -0.00020774    0.00004131    0.01338491
     atom   12 type  1   force =     0.00074083   -0.00093700   -0.01399122
     atom   13 type  1   force =     0.00051587    0.00020079    0.01335704
     atom   14 type  1   force =     0.00012997    0.00028733   -0.00850365
     atom   15 type  1   force =     0.00006842    0.00005164    0.01353143
     atom   16 type  1   force =    -0.00089449    0.00156417   -0.01526673
     atom   17 type  1   force =     0.00008648    0.00022597    0.01331581
     atom   18 type  1   force =    -0.00010607   -0.00016464   -0.01322717
     atom   19 type  1   force =     0.00031834   -0.00004921    0.01358750
     atom   20 type  1   force =    -0.00020717    0.00006551   -0.01319399
     atom   21 type  1   force =    -0.00075244    0.00047146    0.01369224
     atom   22 type  1   force =     0.00114642   -0.00031341   -0.01423358
     atom   23 type  1   force =     0.00005026   -0.00028591    0.01269196
     atom   24 type  1   force =     0.00044196    0.00106234   -0.01416717
     atom   25 type  1   force =    -0.00003033    0.00006168    0.01365406
     atom   26 type  1   force =     0.00013208    0.00001001   -0.01360593
     atom   27 type  1   force =     0.00003834    0.00003345    0.01328424
     atom   28 type  1   force =     0.00020592    0.00017062   -0.01316803
     atom   29 type  1   force =     0.00022819   -0.00016329    0.01354104
     atom   30 type  1   force =     0.00013791    0.00020710   -0.01331379
     atom   31 type  1   force =    -0.00021398    0.00010291    0.01340591
     atom   32 type  1   force =     0.00009701   -0.00001399   -0.01342804
     atom   33 type  2   force =    -0.00030891   -0.00011992   -0.00073644
     atom   34 type  2   force =    -0.00051024   -0.00022019    0.00093639
     atom   35 type  2   force =    -0.00115267    0.00021993    0.00136565
     atom   36 type  2   force =     0.00044873    0.00003440   -0.00051533
     atom   37 type  3   force =     0.00039685    0.00018629   -0.00008481
     atom   38 type  3   force =    -0.00052434    0.00043866   -0.00029512
     atom   39 type  3   force =     0.00084357    0.00034882   -0.00075134
     atom   40 type  3   force =     0.00006537   -0.00022767    0.00000583
     atom   41 type  3   force =     0.00044705   -0.00051004    0.00038218
     atom   42 type  4   force =     0.00027592   -0.00014425   -0.00040702
     atom   43 type  4   force =    -0.00007895   -0.00090847   -0.00018530
     atom   44 type  4   force =     0.00018169   -0.00013143   -0.00021191
     atom   45 type  4   force =     0.00027553    0.00012490    0.00036298
     atom   46 type  4   force =     0.00060796   -0.00015995   -0.00041108
     atom   47 type  4   force =    -0.00029412   -0.00007463    0.00026483

     Total force =     0.076149     Total SCF correction =     0.001675
 !ASE

     Writing output data file calc.save
 
     init_run     :     94.08s CPU    105.48s WALL (       1 calls)
     electrons    :  58268.85s CPU  58868.52s WALL (      10 calls)
     update_pot   :     58.06s CPU     58.60s WALL (       9 calls)
     forces       :    683.09s CPU    683.44s WALL (      10 calls)

     Called by init_run:
     wfcinit      :     66.44s CPU     77.67s WALL (       1 calls)
     potinit      :      2.98s CPU      3.07s WALL (       1 calls)

     Called by electrons:
     c_bands      :  41236.44s CPU  41702.11s WALL (     245 calls)
     sum_band     :  10144.42s CPU  10152.25s WALL (     245 calls)
     v_of_rho     :     94.54s CPU    104.06s WALL (     255 calls)
     newd         :   5304.18s CPU   5306.24s WALL (     255 calls)
     mix_rho      :   1552.27s CPU   1666.09s WALL (     245 calls)

     Called by c_bands:
     init_us_2    :    226.42s CPU    226.51s WALL (    5100 calls)
     cegterg      :  40293.09s CPU  40634.54s WALL (    2482 calls)

     Called by *egterg:
     h_psi        :  26856.18s CPU  26881.27s WALL (   18548 calls)
     s_psi        :   2086.45s CPU   2085.36s WALL (   18548 calls)
     g_psi        :     40.89s CPU     40.87s WALL (   16056 calls)
     cdiaghg      :   5161.35s CPU   5158.55s WALL (   18420 calls)

     Called by h_psi:
     add_vuspsi   :   2096.25s CPU   2095.18s WALL (   18548 calls)

     General routines
     calbec       :   2844.36s CPU   2846.61s WALL (   21188 calls)
     fft          :    130.25s CPU    140.53s WALL (    4159 calls)
     ffts         :    819.82s CPU    932.29s WALL (  115801 calls)
     fftw         :  22056.06s CPU  22070.85s WALL ( 4196290 calls)
     interpolate  :     19.30s CPU     20.26s WALL (     500 calls)
     davcio       :      0.02s CPU      1.74s WALL (      10 calls)
 
     Parallel routines
     fft_scatter  :   5723.56s CPU   5840.24s WALL ( 4316250 calls)

     PAW routines
     PAW_pot      :    143.89s CPU    143.83s WALL (     264 calls)
 
     PWSCF        :    16h28m CPU       16h39m WALL

 
   This run was terminated on:  17: 0:13  16Apr2019            

=------------------------------------------------------------------------------=
   JOB DONE.
=------------------------------------------------------------------------------=
