  python dir          : /gpfs/pace1/project/chbe-medford/medford-share/gits/frozen/ben_espresso_8_24_2017/espresso
  espresso dir        : /nv/hp22/amedford6/medford-shared/builds/espresso/5.1.r11289-pybeef/intel-16.0+mvapich2-2.2+mkl-11.3/espresso-5.1.r11289-pybeef/bin
  pseudo dir          : /gpfs/pace1/project/chbe-medford/medford-share/data/pseudos/SSSP_eff_PBE
  ase-espresso py git : GITVERSION



     Program PWSCF v.5.1rc2 starts on  9Feb2019 at 22:10:24 

     This program is part of the open-source Quantum ESPRESSO suite
     for quantum simulation of materials; please cite
         "P. Giannozzi et al., J. Phys.:Condens. Matter 21 395502 (2009);
          URL http://www.quantum-espresso.org", 
     in publications or presentations arising from this work. More details at
     http://www.quantum-espresso.org/quote

     Parallel version (MPI), running on    12 processors
     R & G space division:  proc/nbgrp/npool/nimage =      12
     Reading input from pw.inp
     Message from routine read_cards :
     DEPRECATED: no units specified in CELL_PARAMETERS card

     Current dimensions of program PWSCF are:
     Max number of different atomic species (ntypx) = 10
     Max number of k-points (npk) =  40000
     Max angular momentum in pseudopotentials (lmaxx) =  3

     IMPORTANT: XC functional enforced from input :
     Exchange-correlation      = PBE ( 1  4  3  4 0)
     Any further DFT definition will be discarded
     Please, verify this is what you really want

               file Rh.UPF: wavefunction(s)  4S 5S 4D renormalized

     Subspace diagonalization in iterative solution of the eigenvalue problem:
     a serial algorithm will be used

 
     Parallelization info
     --------------------
     sticks:   dense  smooth     PW     G-vecs:    dense   smooth      PW
     Min         783     384    101               170307    58219    7897
     Max         784     385    102               170320    58245    7906
     Sum        9403    4615   1213              2043787   698753   94833
 


     bravais-lattice index     =            0
     lattice parameter (alat)  =       1.8897  a.u.
     unit-cell volume          =   20124.8147 (a.u.)^3
     number of atoms/cell      =           48
     number of atomic types    =            4
     number of electrons       =       590.00
     number of Kohn-Sham states=          305
     kinetic-energy cutoff     =      40.4243  Ry
     charge density cutoff     =     330.7439  Ry
     convergence threshold     =      7.3E-07
     mixing beta               =       0.2000
     number of iterations used =            8  local-TF  mixing
     Exchange-correlation      = PBE ( 1  4  3  4 0)
     nstep                     =           50


     celldm(1)=   1.889726  celldm(2)=   0.000000  celldm(3)=   0.000000
     celldm(4)=   0.000000  celldm(5)=   0.000000  celldm(6)=   0.000000

     crystal axes: (cart. coord. in units of alat)
               a(1) = (  10.757640   0.000000   0.000000 )  
               a(2) = (  -5.378820   9.316389   0.000000 )  
               a(3) = (   0.000000   0.000000  29.755734 )  

     reciprocal axes: (cart. coord. in units 2 pi/alat)
               b(1) = (  0.092957  0.053669  0.000000 )  
               b(2) = (  0.000000  0.107338  0.000000 )  
               b(3) = (  0.000000  0.000000  0.033607 )  


     PseudoPot. # 1 for Rh read from file:
     /gpfs/pace1/project/chbe-medford/medford-share/data/pseudos/SSSP_eff_PBE/Rh.UPF
     MD5 check sum: ceb12254454c5aaeede670f925ab9aba
     Pseudo is Projector augmented-wave + core cor, Zval = 17.0
     Generated using "atomic" code by A. Dal Corso  v.5.1
     Shape of augmentation charge: PSQ
     Using radial grid of 1233 points,  6 beta functions with: 
                l(1) =   0
                l(2) =   0
                l(3) =   1
                l(4) =   1
                l(5) =   2
                l(6) =   2
     Q(r) pseudized with 0 coefficients 


     PseudoPot. # 2 for O  read from file:
     /gpfs/pace1/project/chbe-medford/medford-share/data/pseudos/SSSP_eff_PBE/O.UPF
     MD5 check sum: 734c27235a0248c51dbae37a1fbe46ec
     Pseudo is Ultrasoft + core correction, Zval =  6.0
     Generated by new atomic code, or converted to UPF format
     Using radial grid of  737 points,  5 beta functions with: 
                l(1) =   0
                l(2) =   0
                l(3) =   1
                l(4) =   1
                l(5) =   2
     Q(r) pseudized with  8 coefficients,  rinner =    0.900   0.900   0.900
                                                       0.900   0.900

     PseudoPot. # 3 for C  read from file:
     /gpfs/pace1/project/chbe-medford/medford-share/data/pseudos/SSSP_eff_PBE/C.UPF
     MD5 check sum: d1aef80898a10debaa0f26306b886e00
     Pseudo is Ultrasoft + core correction, Zval =  4.0
     Generated by new atomic code, or converted to UPF format
     Using radial grid of  721 points,  4 beta functions with: 
                l(1) =   0
                l(2) =   0
                l(3) =   1
                l(4) =   1
     Q(r) pseudized with  8 coefficients,  rinner =    1.100   1.100   1.100


     PseudoPot. # 4 for  H read from file:
     /gpfs/pace1/project/chbe-medford/medford-share/data/pseudos/SSSP_eff_PBE/H.UPF
     MD5 check sum: 36633979392af7100e6f6632747262d3
     Pseudo is Ultrasoft, Zval =  1.0
     Generated using "atomic" code by A. Dal Corso  v.5.0.99 svn rev. 10869
     Using radial grid of  929 points,  2 beta functions with: 
                l(1) =   0
                l(2) =   0
     Q(r) pseudized with 0 coefficients 


     atomic species   valence    mass     pseudopotential
        Rh1           17.00   102.90550     Rh( 1.00)
        O1             6.00    15.99940     O ( 1.00)
        C1             4.00    12.01100     C ( 1.00)
        H1             1.00     1.00794      H( 1.00)

     No symmetry found



   Cartesian axes

     site n.     atom                  positions (alat units)
         1           Rh1 tau(   1) = (   0.0000000   0.0000000  10.0000000  )
         2           Rh1 tau(   2) = (   1.3447050   0.7763658  12.1958940  )
         3           Rh1 tau(   3) = (  -1.3447050   2.3290973  10.0000000  )
         4           Rh1 tau(   4) = (   0.0000000   3.1054631  12.1958940  )
         5           Rh1 tau(   5) = (  -2.6894099   4.6581946  10.0000000  )
         6           Rh1 tau(   6) = (  -1.3447050   5.4345604  12.1958940  )
         7           Rh1 tau(   7) = (  -4.0341149   6.9872920  10.0000000  )
         8           Rh1 tau(   8) = (  -2.6894099   7.7636577  12.1958940  )
         9           Rh1 tau(   9) = (   2.6894099   0.0000000  10.0000000  )
        10           Rh1 tau(  10) = (   4.0341149   0.7763658  12.1958940  )
        11           Rh1 tau(  11) = (   1.3447050   2.3290973  10.0000000  )
        12           Rh1 tau(  12) = (   2.6894099   3.1054631  12.1958940  )
        13           Rh1 tau(  13) = (   0.0000000   4.6581946  10.0000000  )
        14           Rh1 tau(  14) = (   1.3447050   5.4345604  12.1958940  )
        15           Rh1 tau(  15) = (  -1.3447050   6.9872920  10.0000000  )
        16           Rh1 tau(  16) = (   0.0000000   7.7636577  12.1958940  )
        17           Rh1 tau(  17) = (   5.3788199   0.0000000  10.0000000  )
        18           Rh1 tau(  18) = (   6.7235248   0.7763658  12.1958940  )
        19           Rh1 tau(  19) = (   4.0341149   2.3290973  10.0000000  )
        20           Rh1 tau(  20) = (   5.3788199   3.1054631  12.1958940  )
        21           Rh1 tau(  21) = (   2.6894099   4.6581946  10.0000000  )
        22           Rh1 tau(  22) = (   4.0341149   5.4345604  12.1958940  )
        23           Rh1 tau(  23) = (   1.3447050   6.9872920  10.0000000  )
        24           Rh1 tau(  24) = (   2.6894099   7.7636577  12.1958940  )
        25           Rh1 tau(  25) = (   8.0682298   0.0000000  10.0000000  )
        26           Rh1 tau(  26) = (   9.4129348   0.7763658  12.1958940  )
        27           Rh1 tau(  27) = (   6.7235248   2.3290973  10.0000000  )
        28           Rh1 tau(  28) = (   8.0682298   3.1054631  12.1958940  )
        29           Rh1 tau(  29) = (   5.3788199   4.6581946  10.0000000  )
        30           Rh1 tau(  30) = (   6.7235248   5.4345604  12.1958940  )
        31           Rh1 tau(  31) = (   4.0341149   6.9872920  10.0000000  )
        32           Rh1 tau(  32) = (   5.3788199   7.7636577  12.1958940  )
        33           O1  tau(  33) = (   5.4302000   7.6808056  16.8475662  )
        34           O1  tau(  34) = (   5.3790000   3.1050000  14.6958940  )
        35           O1  tau(  35) = (   5.4299000   2.6598933  16.9224415  )
        36           C1  tau(  36) = (   5.4162000   5.3923101  17.6263566  )
        37           C1  tau(  37) = (   5.4113000   4.9712607  16.1604357  )
        38           C1  tau(  38) = (   5.4116000   6.9006773  17.7983881  )
        39           C1  tau(  39) = (   5.3781000   7.4063549  19.2173289  )
        40           C1  tau(  40) = (   5.4086000   3.4684018  16.0048636  )
        41           H1  tau(  41) = (   6.3065000   4.9966822  18.1284043  )
        42           H1  tau(  42) = (   4.5317000   4.9902707  18.1337093  )
        43           H1  tau(  43) = (   6.3001000   5.3660101  15.6551096  )
        44           H1  tau(  44) = (   4.5201000   5.3689197  15.6618701  )
        45           H1  tau(  45) = (   4.4654000   7.0596467  19.7082451  )
        46           H1  tau(  46) = (   6.2575000   7.0446997  19.7557339  )
        47           H1  tau(  47) = (   5.3876000   8.4998201  19.2197914  )
        48           H1  tau(  48) = (   5.3771000   2.1301262  14.5874250  )

     number of k points=     4  Fermi-Dirac smearing, width (Ry)=  0.0073
                       cart. coord. in units 2pi/alat
        k(    1) = (   0.0000000   0.0000000   0.0000000), wk =   0.5000000
        k(    2) = (   0.0000000  -0.0536689   0.0000000), wk =   0.5000000
        k(    3) = (   0.0464786  -0.0268344   0.0000000), wk =   0.5000000
        k(    4) = (  -0.0464786  -0.0268344   0.0000000), wk =   0.5000000

     Dense  grid:  2043787 G-vectors     FFT dimensions: ( 120, 120, 360)

     Smooth grid:   698753 G-vectors     FFT dimensions: (  90,  90, 240)

     Largest allocated arrays     est. size (Mb)     dimensions
        Kohn-Sham Wavefunctions        33.95 Mb     (    7295,  305)
        NL pseudopotentials            74.69 Mb     (    7295,  671)
        Each V/rho on FFT grid          6.59 Mb     (  432000)
        Each G-vector array             1.30 Mb     (  170320)
        G-vector shells                 0.42 Mb     (   54910)
     Largest temporary arrays     est. size (Mb)     dimensions
        Auxiliary wavefunctions       135.80 Mb     (    7295, 1220)
        Each subspace H/S matrix       22.71 Mb     (    1220, 1220)
        Each <psi_i|beta_j> matrix      3.12 Mb     (     671,  305)
        Arrays for rho mixing          52.73 Mb     (  432000,    8)

     Check: negative/imaginary core charge=   -0.000001    0.000000

     Initial potential from superposition of free atoms
     Check: negative starting charge=   -0.061588

     starting charge  589.98404, renormalised to  590.00000

     negative rho (up, down):  6.159E-02 0.000E+00
     Starting wfc are  360 randomized atomic wfcs
     Checking if some PAW data can be deallocated... 

     total cpu time spent up to now is       57.4 secs

     per-process dynamical memory:   397.4 Mb

     Self-consistent Calculation

     iteration #  1     ecut=    40.42 Ry     beta=0.20
     Davidson diagonalization with overlap
     ethr =  1.00E-02,  avg # of iterations =  2.8

     negative rho (up, down):  4.384E-02 0.000E+00

     total cpu time spent up to now is      178.1 secs

     total energy              =  -15207.45065075 Ry
     Harris-Foulkes estimate   =  -15207.94452212 Ry
     estimated scf accuracy    <       6.44983435 Ry

     iteration #  2     ecut=    40.42 Ry     beta=0.20
     Davidson diagonalization with overlap
     ethr =  1.09E-03,  avg # of iterations =  3.0

     negative rho (up, down):  2.055E-02 0.000E+00

     total cpu time spent up to now is      281.4 secs

     total energy              =  -15206.11239255 Ry
     Harris-Foulkes estimate   =  -15207.61781091 Ry
     estimated scf accuracy    <       4.71611253 Ry

     iteration #  3     ecut=    40.42 Ry     beta=0.20
     Davidson diagonalization with overlap
     ethr =  7.99E-04,  avg # of iterations =  5.8

     negative rho (up, down):  1.981E-02 0.000E+00

     total cpu time spent up to now is      402.8 secs

     total energy              =  -15206.77796261 Ry
     Harris-Foulkes estimate   =  -15206.77960175 Ry
     estimated scf accuracy    <       4.06171693 Ry

     iteration #  4     ecut=    40.42 Ry     beta=0.20
     Davidson diagonalization with overlap
     ethr =  6.88E-04,  avg # of iterations =  1.0

     negative rho (up, down):  1.934E-02 0.000E+00

     total cpu time spent up to now is      501.8 secs

     total energy              =  -15206.79017024 Ry
     Harris-Foulkes estimate   =  -15206.78940566 Ry
     estimated scf accuracy    <       4.04141101 Ry

     iteration #  5     ecut=    40.42 Ry     beta=0.20
     Davidson diagonalization with overlap
     ethr =  6.85E-04,  avg # of iterations =  1.0

     negative rho (up, down):  2.021E-02 0.000E+00

     total cpu time spent up to now is      601.0 secs

     total energy              =  -15206.81576389 Ry
     Harris-Foulkes estimate   =  -15206.79279640 Ry
     estimated scf accuracy    <       4.03790852 Ry

     iteration #  6     ecut=    40.42 Ry     beta=0.20
     Davidson diagonalization with overlap
     ethr =  6.84E-04,  avg # of iterations =  1.0

     negative rho (up, down):  1.952E-02 0.000E+00

     total cpu time spent up to now is      703.0 secs

     total energy              =  -15206.48652886 Ry
     Harris-Foulkes estimate   =  -15206.82098387 Ry
     estimated scf accuracy    <       4.11124553 Ry

     iteration #  7     ecut=    40.42 Ry     beta=0.20
     Davidson diagonalization with overlap
     ethr =  6.84E-04,  avg # of iterations =  4.2

     negative rho (up, down):  1.701E-02 0.000E+00

     total cpu time spent up to now is      812.3 secs

     total energy              =  -15206.60142950 Ry
     Harris-Foulkes estimate   =  -15206.70697655 Ry
     estimated scf accuracy    <       0.78572219 Ry

     iteration #  8     ecut=    40.42 Ry     beta=0.20
     Davidson diagonalization with overlap
     ethr =  1.33E-04,  avg # of iterations =  3.5

     negative rho (up, down):  1.471E-02 0.000E+00

     total cpu time spent up to now is      920.8 secs

     total energy              =  -15206.65034423 Ry
     Harris-Foulkes estimate   =  -15206.65930360 Ry
     estimated scf accuracy    <       0.61367563 Ry

     iteration #  9     ecut=    40.42 Ry     beta=0.20
     Davidson diagonalization with overlap
     ethr =  1.04E-04,  avg # of iterations =  1.0

     negative rho (up, down):  5.276E-03 0.000E+00

     total cpu time spent up to now is     1024.9 secs

     total energy              =  -15206.50984261 Ry
     Harris-Foulkes estimate   =  -15206.65606402 Ry
     estimated scf accuracy    <       0.61986314 Ry

     iteration # 10     ecut=    40.42 Ry     beta=0.20
     Davidson diagonalization with overlap
     ethr =  1.04E-04,  avg # of iterations =  2.8

     negative rho (up, down):  4.384E-03 0.000E+00

     total cpu time spent up to now is     1132.1 secs

     total energy              =  -15206.54049353 Ry
     Harris-Foulkes estimate   =  -15206.55497514 Ry
     estimated scf accuracy    <       0.21636670 Ry

     iteration # 11     ecut=    40.42 Ry     beta=0.20
     Davidson diagonalization with overlap
     ethr =  3.67E-05,  avg # of iterations = 10.0

     negative rho (up, down):  5.042E-03 0.000E+00

     total cpu time spent up to now is     1254.1 secs

     total energy              =  -15206.56325313 Ry
     Harris-Foulkes estimate   =  -15206.55498678 Ry
     estimated scf accuracy    <       0.24863517 Ry

     iteration # 12     ecut=    40.42 Ry     beta=0.20
     Davidson diagonalization with overlap
     ethr =  3.67E-05,  avg # of iterations =  1.5

     negative rho (up, down):  2.981E-03 0.000E+00

     total cpu time spent up to now is     1358.1 secs

     total energy              =  -15206.52480850 Ry
     Harris-Foulkes estimate   =  -15206.56561146 Ry
     estimated scf accuracy    <       0.29146211 Ry

     iteration # 13     ecut=    40.42 Ry     beta=0.20
     Davidson diagonalization with overlap
     ethr =  3.67E-05,  avg # of iterations =  4.0

     negative rho (up, down):  2.653E-03 0.000E+00

     total cpu time spent up to now is     1467.6 secs

     total energy              =  -15206.54484178 Ry
     Harris-Foulkes estimate   =  -15206.56353192 Ry
     estimated scf accuracy    <       2.04810681 Ry

     iteration # 14     ecut=    40.42 Ry     beta=0.20
     Davidson diagonalization with overlap
     ethr =  3.67E-05,  avg # of iterations =  1.0

     negative rho (up, down):  1.936E-03 0.000E+00

     total cpu time spent up to now is     1570.2 secs

     total energy              =  -15206.53942224 Ry
     Harris-Foulkes estimate   =  -15206.54704081 Ry
     estimated scf accuracy    <       1.71771546 Ry

     iteration # 15     ecut=    40.42 Ry     beta=0.20
     Davidson diagonalization with overlap
     ethr =  3.67E-05,  avg # of iterations =  7.2

     negative rho (up, down):  1.872E-03 0.000E+00

     total cpu time spent up to now is     1686.3 secs

     total energy              =  -15206.49509272 Ry
     Harris-Foulkes estimate   =  -15206.55573992 Ry
     estimated scf accuracy    <       2.64824500 Ry

     iteration # 16     ecut=    40.42 Ry     beta=0.20
     Davidson diagonalization with overlap
     ethr =  3.67E-05,  avg # of iterations =  7.0

     negative rho (up, down):  1.475E-03 0.000E+00

     total cpu time spent up to now is     1801.2 secs

     total energy              =  -15206.49853976 Ry
     Harris-Foulkes estimate   =  -15206.52055698 Ry
     estimated scf accuracy    <       0.28121307 Ry

     iteration # 17     ecut=    40.42 Ry     beta=0.20
     Davidson diagonalization with overlap
     ethr =  3.67E-05,  avg # of iterations =  3.0

     negative rho (up, down):  1.942E-03 0.000E+00

     total cpu time spent up to now is     1905.7 secs

     total energy              =  -15206.50665429 Ry
     Harris-Foulkes estimate   =  -15206.51033304 Ry
     estimated scf accuracy    <       0.08780972 Ry

     iteration # 18     ecut=    40.42 Ry     beta=0.20
     Davidson diagonalization with overlap
     ethr =  1.49E-05,  avg # of iterations =  1.5

     negative rho (up, down):  4.970E-03 0.000E+00

     total cpu time spent up to now is     2008.7 secs

     total energy              =  -15206.50495718 Ry
     Harris-Foulkes estimate   =  -15206.50739937 Ry
     estimated scf accuracy    <       0.08005868 Ry

     iteration # 19     ecut=    40.42 Ry     beta=0.20
     Davidson diagonalization with overlap
     ethr =  1.36E-05,  avg # of iterations =  3.5

     negative rho (up, down):  1.548E-02 0.000E+00

     total cpu time spent up to now is     2113.4 secs

     total energy              =  -15206.49988889 Ry
     Harris-Foulkes estimate   =  -15206.50696023 Ry
     estimated scf accuracy    <       0.07280119 Ry

     iteration # 20     ecut=    40.42 Ry     beta=0.20
     Davidson diagonalization with overlap
     ethr =  1.23E-05,  avg # of iterations =  2.0

     negative rho (up, down):  6.481E-02 0.000E+00

     total cpu time spent up to now is     2215.5 secs

     total energy              =  -15206.49368335 Ry
     Harris-Foulkes estimate   =  -15206.50138158 Ry
     estimated scf accuracy    <       0.05625986 Ry

     iteration # 21     ecut=    40.42 Ry     beta=0.20
     Davidson diagonalization with overlap
     ethr =  9.54E-06,  avg # of iterations =  3.0

     negative rho (up, down):  9.328E-02 0.000E+00

     total cpu time spent up to now is     2322.5 secs

     total energy              =  -15206.49117610 Ry
     Harris-Foulkes estimate   =  -15206.49563355 Ry
     estimated scf accuracy    <       0.04210873 Ry

     iteration # 22     ecut=    40.42 Ry     beta=0.20
     Davidson diagonalization with overlap
     ethr =  7.14E-06,  avg # of iterations =  8.8

     negative rho (up, down):  5.464E-02 0.000E+00

     total cpu time spent up to now is     2438.8 secs

     total energy              =  -15206.49038273 Ry
     Harris-Foulkes estimate   =  -15206.49351527 Ry
     estimated scf accuracy    <       0.02707969 Ry

     iteration # 23     ecut=    40.42 Ry     beta=0.20
     Davidson diagonalization with overlap
     ethr =  4.59E-06,  avg # of iterations =  7.0

     negative rho (up, down):  1.073E-01 0.000E+00

     total cpu time spent up to now is     2551.4 secs

     total energy              =  -15206.48754834 Ry
     Harris-Foulkes estimate   =  -15206.49178664 Ry
     estimated scf accuracy    <       0.02658743 Ry

     iteration # 24     ecut=    40.42 Ry     beta=0.20
     Davidson diagonalization with overlap
     ethr =  4.51E-06,  avg # of iterations =  2.0

     negative rho (up, down):  1.525E-01 0.000E+00

     total cpu time spent up to now is     2654.8 secs

     total energy              =  -15206.48631714 Ry
     Harris-Foulkes estimate   =  -15206.48810769 Ry
     estimated scf accuracy    <       0.01674843 Ry

     iteration # 25     ecut=    40.42 Ry     beta=0.20
     Davidson diagonalization with overlap
     ethr =  2.84E-06,  avg # of iterations =  5.8

     negative rho (up, down):  1.259E-01 0.000E+00

     total cpu time spent up to now is     2763.4 secs

     total energy              =  -15206.48382977 Ry
     Harris-Foulkes estimate   =  -15206.48672373 Ry
     estimated scf accuracy    <       0.01226037 Ry

     iteration # 26     ecut=    40.42 Ry     beta=0.20
     Davidson diagonalization with overlap
     ethr =  2.08E-06,  avg # of iterations =  3.2

     negative rho (up, down):  1.120E-01 0.000E+00

     total cpu time spent up to now is     2869.7 secs

     total energy              =  -15206.48101640 Ry
     Harris-Foulkes estimate   =  -15206.48402988 Ry
     estimated scf accuracy    <       0.00880022 Ry

     iteration # 27     ecut=    40.42 Ry     beta=0.20
     Davidson diagonalization with overlap
     ethr =  1.49E-06,  avg # of iterations =  4.0

     negative rho (up, down):  8.012E-02 0.000E+00

     total cpu time spent up to now is     2977.0 secs

     total energy              =  -15206.47983336 Ry
     Harris-Foulkes estimate   =  -15206.48136317 Ry
     estimated scf accuracy    <       0.00457886 Ry

     iteration # 28     ecut=    40.42 Ry     beta=0.20
     Davidson diagonalization with overlap
     c_bands:  1 eigenvalues not converged
     ethr =  7.76E-07,  avg # of iterations = 10.8

     negative rho (up, down):  7.341E-02 0.000E+00

     total cpu time spent up to now is     3101.2 secs

     total energy              =  -15206.47983743 Ry
     Harris-Foulkes estimate   =  -15206.48015154 Ry
     estimated scf accuracy    <       0.00267597 Ry

     iteration # 29     ecut=    40.42 Ry     beta=0.20
     Davidson diagonalization with overlap
     ethr =  4.54E-07,  avg # of iterations =  3.2

     negative rho (up, down):  6.465E-02 0.000E+00

     total cpu time spent up to now is     3204.2 secs

     total energy              =  -15206.47955837 Ry
     Harris-Foulkes estimate   =  -15206.47987020 Ry
     estimated scf accuracy    <       0.00168179 Ry

     iteration # 30     ecut=    40.42 Ry     beta=0.20
     Davidson diagonalization with overlap
     ethr =  2.85E-07,  avg # of iterations =  3.0

     negative rho (up, down):  6.278E-02 0.000E+00

     total cpu time spent up to now is     3308.4 secs

     total energy              =  -15206.47948052 Ry
     Harris-Foulkes estimate   =  -15206.47960358 Ry
     estimated scf accuracy    <       0.00084586 Ry

     iteration # 31     ecut=    40.42 Ry     beta=0.20
     Davidson diagonalization with overlap
     ethr =  1.43E-07,  avg # of iterations =  3.2

     negative rho (up, down):  6.364E-02 0.000E+00

     total cpu time spent up to now is     3413.6 secs

     total energy              =  -15206.47944312 Ry
     Harris-Foulkes estimate   =  -15206.47950482 Ry
     estimated scf accuracy    <       0.00047167 Ry

     iteration # 32     ecut=    40.42 Ry     beta=0.20
     Davidson diagonalization with overlap
     ethr =  7.99E-08,  avg # of iterations =  6.0

     negative rho (up, down):  6.305E-02 0.000E+00

     total cpu time spent up to now is     3524.9 secs

     total energy              =  -15206.47944868 Ry
     Harris-Foulkes estimate   =  -15206.47947137 Ry
     estimated scf accuracy    <       0.00020548 Ry

     iteration # 33     ecut=    40.42 Ry     beta=0.20
     Davidson diagonalization with overlap
     ethr =  3.48E-08,  avg # of iterations =  7.8

     negative rho (up, down):  6.306E-02 0.000E+00

     total cpu time spent up to now is     3639.9 secs

     total energy              =  -15206.47945518 Ry
     Harris-Foulkes estimate   =  -15206.47945722 Ry
     estimated scf accuracy    <       0.00015939 Ry

     iteration # 34     ecut=    40.42 Ry     beta=0.20
     Davidson diagonalization with overlap
     ethr =  2.70E-08,  avg # of iterations =  1.2

     negative rho (up, down):  6.657E-02 0.000E+00

     total cpu time spent up to now is     3741.3 secs

     total energy              =  -15206.47944212 Ry
     Harris-Foulkes estimate   =  -15206.47945680 Ry
     estimated scf accuracy    <       0.00012585 Ry

     iteration # 35     ecut=    40.42 Ry     beta=0.20
     Davidson diagonalization with overlap
     ethr =  2.13E-08,  avg # of iterations =  6.0

     negative rho (up, down):  6.877E-02 0.000E+00

     total cpu time spent up to now is     3852.3 secs

     total energy              =  -15206.47943779 Ry
     Harris-Foulkes estimate   =  -15206.47944814 Ry
     estimated scf accuracy    <       0.00005909 Ry

     iteration # 36     ecut=    40.42 Ry     beta=0.20
     Davidson diagonalization with overlap
     c_bands:  4 eigenvalues not converged
     c_bands:  2 eigenvalues not converged
     c_bands:  3 eigenvalues not converged
     ethr =  1.00E-08,  avg # of iterations = 17.2

     negative rho (up, down):  6.935E-02 0.000E+00

     total cpu time spent up to now is     3985.1 secs

     total energy              =  -15206.47943948 Ry
     Harris-Foulkes estimate   =  -15206.47944176 Ry
     estimated scf accuracy    <       0.00005126 Ry

     iteration # 37     ecut=    40.42 Ry     beta=0.20
     Davidson diagonalization with overlap
     c_bands:  1 eigenvalues not converged
     ethr =  8.69E-09,  avg # of iterations = 12.8

     negative rho (up, down):  7.066E-02 0.000E+00

     total cpu time spent up to now is     4107.3 secs

     total energy              =  -15206.47943527 Ry
     Harris-Foulkes estimate   =  -15206.47944055 Ry
     estimated scf accuracy    <       0.00003891 Ry

     iteration # 38     ecut=    40.42 Ry     beta=0.20
     Davidson diagonalization with overlap
     c_bands:  2 eigenvalues not converged
     c_bands:  1 eigenvalues not converged
     ethr =  6.59E-09,  avg # of iterations = 12.2

     negative rho (up, down):  7.174E-02 0.000E+00

     total cpu time spent up to now is     4232.1 secs

     total energy              =  -15206.47943312 Ry
     Harris-Foulkes estimate   =  -15206.47943867 Ry
     estimated scf accuracy    <       0.00004065 Ry

     iteration # 39     ecut=    40.42 Ry     beta=0.20
     Davidson diagonalization with overlap
     c_bands:  1 eigenvalues not converged
     ethr =  6.59E-09,  avg # of iterations =  8.5

     negative rho (up, down):  7.193E-02 0.000E+00

     total cpu time spent up to now is     4347.4 secs

     total energy              =  -15206.47943491 Ry
     Harris-Foulkes estimate   =  -15206.47943561 Ry
     estimated scf accuracy    <       0.00002227 Ry

     iteration # 40     ecut=    40.42 Ry     beta=0.20
     Davidson diagonalization with overlap
     c_bands:  1 eigenvalues not converged
     ethr =  3.77E-09,  avg # of iterations =  5.8

     negative rho (up, down):  7.237E-02 0.000E+00

     total cpu time spent up to now is     4457.5 secs

     total energy              =  -15206.47943279 Ry
     Harris-Foulkes estimate   =  -15206.47943512 Ry
     estimated scf accuracy    <       0.00001895 Ry

     iteration # 41     ecut=    40.42 Ry     beta=0.20
     Davidson diagonalization with overlap
     ethr =  3.21E-09,  avg # of iterations =  3.5

     negative rho (up, down):  7.265E-02 0.000E+00

     total cpu time spent up to now is     4564.6 secs

     total energy              =  -15206.47943199 Ry
     Harris-Foulkes estimate   =  -15206.47943330 Ry
     estimated scf accuracy    <       0.00001247 Ry

     iteration # 42     ecut=    40.42 Ry     beta=0.20
     Davidson diagonalization with overlap
     ethr =  2.11E-09,  avg # of iterations =  5.2

     negative rho (up, down):  7.251E-02 0.000E+00

     total cpu time spent up to now is     4672.3 secs

     total energy              =  -15206.47943087 Ry
     Harris-Foulkes estimate   =  -15206.47943226 Ry
     estimated scf accuracy    <       0.00000958 Ry

     iteration # 43     ecut=    40.42 Ry     beta=0.20
     Davidson diagonalization with overlap
     ethr =  1.62E-09,  avg # of iterations =  4.0

     negative rho (up, down):  7.212E-02 0.000E+00

     total cpu time spent up to now is     4779.7 secs

     total energy              =  -15206.47942986 Ry
     Harris-Foulkes estimate   =  -15206.47943108 Ry
     estimated scf accuracy    <       0.00000674 Ry

     iteration # 44     ecut=    40.42 Ry     beta=0.20
     Davidson diagonalization with overlap
     c_bands:  1 eigenvalues not converged
     ethr =  1.14E-09,  avg # of iterations =  8.2

     negative rho (up, down):  7.165E-02 0.000E+00

     total cpu time spent up to now is     4895.0 secs

     total energy              =  -15206.47942941 Ry
     Harris-Foulkes estimate   =  -15206.47943007 Ry
     estimated scf accuracy    <       0.00000452 Ry

     iteration # 45     ecut=    40.42 Ry     beta=0.20
     Davidson diagonalization with overlap
     c_bands:  1 eigenvalues not converged
     ethr =  7.66E-10,  avg # of iterations =  7.5

     negative rho (up, down):  7.140E-02 0.000E+00

     total cpu time spent up to now is     5007.3 secs

     total energy              =  -15206.47942889 Ry
     Harris-Foulkes estimate   =  -15206.47942949 Ry
     estimated scf accuracy    <       0.00000334 Ry

     iteration # 46     ecut=    40.42 Ry     beta=0.20
     Davidson diagonalization with overlap
     c_bands:  3 eigenvalues not converged
     c_bands:  1 eigenvalues not converged
     ethr =  5.65E-10,  avg # of iterations = 13.5

     negative rho (up, down):  7.138E-02 0.000E+00

     total cpu time spent up to now is     5132.2 secs

     total energy              =  -15206.47942859 Ry
     Harris-Foulkes estimate   =  -15206.47942899 Ry
     estimated scf accuracy    <       0.00000250 Ry

     iteration # 47     ecut=    40.42 Ry     beta=0.20
     Davidson diagonalization with overlap
     c_bands:  2 eigenvalues not converged
     ethr =  4.24E-10,  avg # of iterations = 10.8

     negative rho (up, down):  7.155E-02 0.000E+00

     total cpu time spent up to now is     5249.9 secs

     total energy              =  -15206.47942818 Ry
     Harris-Foulkes estimate   =  -15206.47942866 Ry
     estimated scf accuracy    <       0.00000162 Ry

     iteration # 48     ecut=    40.42 Ry     beta=0.20
     Davidson diagonalization with overlap
     c_bands:  5 eigenvalues not converged
     c_bands:  1 eigenvalues not converged
     c_bands:  1 eigenvalues not converged
     ethr =  2.75E-10,  avg # of iterations = 15.8

     negative rho (up, down):  7.171E-02 0.000E+00

     total cpu time spent up to now is     5383.1 secs

     total energy              =  -15206.47942819 Ry
     Harris-Foulkes estimate   =  -15206.47942827 Ry
     estimated scf accuracy    <       0.00000106 Ry

     iteration # 49     ecut=    40.42 Ry     beta=0.20
     Davidson diagonalization with overlap
     c_bands:  1 eigenvalues not converged
     c_bands:  2 eigenvalues not converged
     ethr =  1.79E-10,  avg # of iterations = 16.0

     negative rho (up, down):  7.183E-02 0.000E+00

     total cpu time spent up to now is     5512.9 secs

     total energy              =  -15206.47942807 Ry
     Harris-Foulkes estimate   =  -15206.47942822 Ry
     estimated scf accuracy    <       0.00000079 Ry

     iteration # 50     ecut=    40.42 Ry     beta=0.20
     Davidson diagonalization with overlap
     c_bands:  2 eigenvalues not converged
     c_bands:  2 eigenvalues not converged
     ethr =  1.34E-10,  avg # of iterations = 11.5

     negative rho (up, down):  7.155E-02 0.000E+00

     total cpu time spent up to now is     5627.4 secs

     End of self-consistent calculation

          k = 0.0000 0.0000 0.0000 ( 87467 PWs)   bands (ev):

   -79.0681 -79.0412 -79.0081 -79.0061 -79.0052 -79.0036 -79.0025 -78.9969
   -78.9838 -78.9666 -78.9647 -78.9645 -78.9625 -78.9618 -78.9591 -78.9585
   -78.9574 -78.9567 -78.9563 -78.9548 -78.9542 -78.9530 -78.9511 -78.9429
   -78.9398 -78.9398 -78.9389 -78.9376 -78.9364 -78.9335 -78.9320 -78.9312
   -47.2019 -47.2009 -47.2004 -47.1494 -47.1483 -47.1482 -47.0940 -47.0930
   -47.0894 -47.0874 -47.0871 -47.0852 -47.0632 -47.0624 -47.0593 -47.0582
   -47.0580 -47.0563 -46.9376 -46.9290 -46.9279 -46.9219 -46.9209 -46.9200
   -46.9117 -46.9067 -46.9059 -46.9024 -46.9015 -46.9010 -46.8991 -46.8793
   -46.8788 -46.8755 -46.8740 -46.8717 -46.8710 -46.8160 -46.8154 -46.8107
   -46.8095 -46.8073 -46.8072 -46.7814 -46.7684 -46.7682 -46.7631 -46.7550
   -46.7537 -46.7534 -46.7514 -46.7513 -46.6990 -46.6967 -46.6966 -46.6920
   -46.6909 -46.6908 -46.6899 -46.6876 -46.6860 -46.6814 -46.6717 -46.6709
   -46.6699 -46.6592 -46.6588 -46.6583 -46.6559 -46.6550 -46.6243 -46.6232
   -46.6197 -46.6192 -46.6190 -46.6178 -46.6128 -46.6124 -46.5833 -46.5648
   -46.5644 -46.5567 -46.5561 -46.5552 -46.5475 -46.5475 -46.5457 -46.5442
   -46.5424 -46.5222 -46.5183 -46.5166 -46.5143 -46.5137 -46.5116 -46.5083
   -23.8176 -21.7102 -21.4587 -15.9525 -14.5490 -13.1058 -11.1296  -8.8785
    -8.2092  -8.1932  -7.9520  -7.1260  -6.9290  -6.8299  -6.5629  -6.2014
    -5.9762  -5.8370  -5.8364  -5.8359  -5.7492  -5.5051  -5.5032  -5.5025
    -5.5022  -5.5017  -5.4949  -5.4927  -5.4922  -5.4673  -5.1350  -5.1299
    -5.1276  -5.0084  -4.9635  -4.9514  -4.9509  -4.9492  -4.9488  -4.9368
    -4.9318  -4.9071  -4.8761  -4.8756  -4.8744  -4.8739  -4.8692  -4.8625
    -4.4483  -4.4420  -4.4386  -4.4383  -4.4373  -4.4309  -4.4149  -4.3655
    -4.3652  -4.3626  -4.3624  -4.3606  -4.3599  -4.2039  -4.1796  -4.1760
    -4.1753  -4.1750  -4.1601  -4.0165  -3.6395  -3.6347  -3.6210  -3.3533
    -3.3440  -3.3433  -3.3426  -3.3423  -3.3414  -3.3244  -3.2728  -3.2667
    -3.2662  -3.2631  -3.2597  -3.2575  -3.0821  -3.0821  -3.0285  -3.0156
    -3.0155  -3.0120  -3.0105  -3.0071  -2.9064  -2.9061  -2.8621  -2.8572
    -2.8526  -2.8508  -2.8479  -2.8478  -2.8240  -2.7937  -2.7930  -2.7923
    -2.7841  -2.7807  -2.6280  -2.5389  -2.5368  -2.5348  -2.5320  -2.5302
    -2.5295  -2.4732  -2.4719  -2.4695  -2.4670  -2.4613  -2.4259  -2.3565
    -2.3557  -2.3498  -2.1118  -2.1114  -2.1057  -2.1054  -2.1049  -2.1031
    -1.6557  -1.6437  -1.6435  -1.6396  -1.6378  -1.6016  -1.6015  -1.5974
    -1.5973  -1.5970  -1.5958  -1.5734  -1.5471  -1.4456  -1.4153  -1.4147
    -1.3554  -1.1270  -1.1235  -1.1129  -1.1115  -1.1111  -1.1102  -1.1085
    -1.1082  -1.0952  -1.0947  -1.0917  -1.0914  -1.0911  -1.0900  -0.9370
    -0.9364  -0.9331  -0.9321  -0.9283  -0.8953  -0.8409  -0.8358  -0.8047
    -0.4257  -0.4253  -0.4186  -0.1962  -0.1956  -0.1848  -0.1846  -0.1831
    -0.1830

          k = 0.0000-0.0537 0.0000 ( 87256 PWs)   bands (ev):

   -79.0665 -79.0375 -79.0286 -79.0138 -79.0069 -78.9865 -78.9827 -78.9823
   -78.9815 -78.9801 -78.9777 -78.9708 -78.9694 -78.9687 -78.9611 -78.9582
   -78.9582 -78.9553 -78.9518 -78.9494 -78.9494 -78.9474 -78.9448 -78.9435
   -78.9420 -78.9415 -78.9397 -78.9386 -78.9382 -78.9348 -78.9321 -78.9299
   -47.1582 -47.1578 -47.1534 -47.1530 -47.1256 -47.1200 -47.1114 -47.1112
   -47.1074 -47.1074 -47.0980 -47.0930 -47.0784 -47.0733 -47.0538 -47.0491
   -47.0305 -47.0297 -47.0260 -47.0240 -47.0064 -47.0014 -46.9991 -46.9966
   -46.9484 -46.9438 -46.9040 -46.8841 -46.8831 -46.8819 -46.8764 -46.8737
   -46.8420 -46.8377 -46.8256 -46.8204 -46.8188 -46.8175 -46.7890 -46.7748
   -46.7723 -46.7721 -46.7582 -46.7528 -46.7474 -46.7459 -46.7457 -46.7447
   -46.7408 -46.7390 -46.7326 -46.7191 -46.7159 -46.7152 -46.7114 -46.7067
   -46.7010 -46.6988 -46.6843 -46.6815 -46.6802 -46.6800 -46.6727 -46.6667
   -46.6663 -46.6651 -46.6630 -46.6629 -46.6590 -46.6584 -46.6358 -46.6334
   -46.6302 -46.6292 -46.6231 -46.6194 -46.6179 -46.6164 -46.5884 -46.5768
   -46.5740 -46.5701 -46.5599 -46.5539 -46.5502 -46.5477 -46.5380 -46.5359
   -46.5301 -46.5231 -46.5221 -46.5216 -46.5111 -46.5090 -46.5076 -46.5066
   -23.8176 -21.7102 -21.4587 -15.9525 -14.5490 -13.1058 -11.1295  -8.8785
    -8.2091  -8.1933  -7.9518  -7.1258  -6.8495  -6.5639  -6.3898  -6.3823
    -6.2013  -5.7412  -5.6435  -5.6396  -5.5579  -5.5436  -5.5084  -5.5001
    -5.4152  -5.4119  -5.4093  -5.4093  -5.2834  -5.2786  -5.1304  -5.1296
    -5.1272  -5.1256  -5.0590  -5.0586  -5.0531  -5.0527  -5.0086  -4.9540
    -4.9434  -4.9154  -4.9116  -4.9037  -4.8702  -4.8648  -4.8614  -4.8409
    -4.8398  -4.7931  -4.7886  -4.7065  -4.7049  -4.7025  -4.7009  -4.4977
    -4.4939  -4.4920  -4.4779  -4.4164  -4.4048  -4.4005  -4.3423  -4.3388
    -4.0525  -3.9028  -3.9017  -3.6612  -3.6551  -3.4930  -3.4888  -3.4871
    -3.4703  -3.4696  -3.4644  -3.4621  -3.4562  -3.3295  -3.3212  -3.3170
    -3.3122  -3.3089  -3.3073  -3.3055  -3.3035  -3.2519  -3.2460  -3.1600
    -3.1554  -3.0979  -3.0941  -3.0414  -3.0324  -3.0300  -3.0245  -2.7308
    -2.6962  -2.6922  -2.6798  -2.6724  -2.6723  -2.6708  -2.6694  -2.6684
    -2.6657  -2.6643  -2.6576  -2.5642  -2.5613  -2.5566  -2.5299  -2.5266
    -2.4287  -2.4279  -2.2528  -2.2479  -2.1826  -2.1786  -2.1773  -2.1764
    -2.1527  -2.1501  -2.0884  -2.0598  -1.8564  -1.8531  -1.8520  -1.8489
    -1.8253  -1.8225  -1.7451  -1.7414  -1.6198  -1.6140  -1.5454  -1.4448
    -1.4367  -1.4364  -1.4348  -1.3356  -1.3221  -1.3137  -1.3130  -1.3097
    -1.3046  -1.2940  -1.2530  -1.2479  -1.1959  -1.1842  -1.1737  -0.9861
    -0.9847  -0.7681  -0.7641  -0.7591  -0.7587  -0.7070  -0.7034  -0.7001
    -0.6983  -0.5813  -0.5797  -0.5784  -0.5760  -0.5529  -0.5526  -0.5461
    -0.5417  -0.4356  -0.4334  -0.3593  -0.3499  -0.3417  -0.3105  -0.3010
    -0.2954

          k = 0.0465-0.0268 0.0000 ( 87256 PWs)   bands (ev):

   -79.0664 -79.0377 -79.0284 -79.0137 -79.0068 -78.9862 -78.9842 -78.9819
   -78.9816 -78.9798 -78.9771 -78.9713 -78.9699 -78.9685 -78.9609 -78.9587
   -78.9561 -78.9544 -78.9534 -78.9496 -78.9485 -78.9479 -78.9455 -78.9439
   -78.9429 -78.9421 -78.9395 -78.9381 -78.9364 -78.9342 -78.9332 -78.9300
   -47.1590 -47.1561 -47.1538 -47.1533 -47.1257 -47.1201 -47.1122 -47.1097
   -47.1079 -47.1073 -47.0979 -47.0929 -47.0784 -47.0739 -47.0541 -47.0493
   -47.0304 -47.0302 -47.0257 -47.0243 -47.0065 -47.0015 -46.9985 -46.9966
   -46.9484 -46.9434 -46.9040 -46.8843 -46.8823 -46.8819 -46.8770 -46.8737
   -46.8419 -46.8373 -46.8257 -46.8204 -46.8183 -46.8177 -46.7887 -46.7754
   -46.7728 -46.7717 -46.7584 -46.7536 -46.7478 -46.7462 -46.7453 -46.7439
   -46.7399 -46.7390 -46.7322 -46.7181 -46.7162 -46.7157 -46.7117 -46.7078
   -46.7010 -46.6987 -46.6853 -46.6814 -46.6802 -46.6790 -46.6721 -46.6670
   -46.6655 -46.6650 -46.6636 -46.6631 -46.6590 -46.6571 -46.6353 -46.6333
   -46.6315 -46.6290 -46.6257 -46.6198 -46.6173 -46.6165 -46.5856 -46.5763
   -46.5739 -46.5698 -46.5635 -46.5537 -46.5491 -46.5476 -46.5370 -46.5346
   -46.5309 -46.5236 -46.5230 -46.5209 -46.5121 -46.5085 -46.5084 -46.5054
   -23.8176 -21.7102 -21.4587 -15.9525 -14.5490 -13.1058 -11.1295  -8.8784
    -8.2091  -8.1933  -7.9517  -7.1261  -6.8497  -6.5633  -6.3895  -6.3839
    -6.2002  -5.7432  -5.6438  -5.6398  -5.5579  -5.5385  -5.5087  -5.5021
    -5.4137  -5.4119  -5.4094  -5.4092  -5.2853  -5.2818  -5.1297  -5.1295
    -5.1278  -5.1254  -5.0624  -5.0547  -5.0540  -5.0520  -5.0087  -4.9470
    -4.9427  -4.9159  -4.9154  -4.9136  -4.8738  -4.8651  -4.8508  -4.8405
    -4.8348  -4.7934  -4.7880  -4.7064  -4.7053  -4.7023  -4.6982  -4.5012
    -4.4942  -4.4913  -4.4839  -4.4160  -4.4029  -4.4003  -4.3455  -4.3422
    -4.0330  -3.9055  -3.9018  -3.6650  -3.6578  -3.4910  -3.4899  -3.4871
    -3.4856  -3.4663  -3.4618  -3.4580  -3.4573  -3.3252  -3.3199  -3.3166
    -3.3113  -3.3083  -3.3081  -3.3049  -3.2994  -3.2537  -3.2504  -3.1598
    -3.1570  -3.0984  -3.0945  -3.0406  -3.0335  -3.0328  -3.0246  -2.7376
    -2.6958  -2.6925  -2.6783  -2.6737  -2.6719  -2.6716  -2.6689  -2.6676
    -2.6674  -2.6642  -2.6591  -2.5613  -2.5570  -2.5566  -2.5309  -2.5236
    -2.4301  -2.4222  -2.2534  -2.2482  -2.1828  -2.1806  -2.1778  -2.1764
    -2.1537  -2.1472  -2.0888  -2.0595  -1.8574  -1.8547  -1.8530  -1.8504
    -1.8248  -1.8167  -1.7452  -1.7419  -1.6269  -1.6050  -1.5460  -1.4446
    -1.4413  -1.4360  -1.4337  -1.3257  -1.3216  -1.3163  -1.3119  -1.3067
    -1.3004  -1.2952  -1.2529  -1.2480  -1.2063  -1.1847  -1.1802  -0.9870
    -0.9842  -0.7663  -0.7634  -0.7613  -0.7565  -0.7087  -0.7033  -0.7003
    -0.6975  -0.5808  -0.5798  -0.5789  -0.5779  -0.5541  -0.5498  -0.5454
    -0.5420  -0.4367  -0.4319  -0.3607  -0.3502  -0.3407  -0.3105  -0.3001
    -0.2967

          k =-0.0465-0.0268 0.0000 ( 87256 PWs)   bands (ev):

   -79.0664 -79.0377 -79.0284 -79.0137 -79.0068 -78.9862 -78.9842 -78.9818
   -78.9816 -78.9798 -78.9772 -78.9713 -78.9698 -78.9685 -78.9609 -78.9587
   -78.9562 -78.9544 -78.9534 -78.9496 -78.9485 -78.9479 -78.9455 -78.9439
   -78.9429 -78.9421 -78.9395 -78.9381 -78.9364 -78.9342 -78.9332 -78.9300
   -47.1590 -47.1561 -47.1538 -47.1533 -47.1257 -47.1201 -47.1122 -47.1097
   -47.1079 -47.1073 -47.0980 -47.0929 -47.0783 -47.0738 -47.0541 -47.0493
   -47.0304 -47.0302 -47.0257 -47.0243 -47.0066 -47.0015 -46.9985 -46.9966
   -46.9484 -46.9434 -46.9040 -46.8843 -46.8824 -46.8819 -46.8770 -46.8737
   -46.8419 -46.8373 -46.8258 -46.8204 -46.8183 -46.8177 -46.7887 -46.7754
   -46.7728 -46.7717 -46.7584 -46.7536 -46.7478 -46.7462 -46.7453 -46.7439
   -46.7399 -46.7390 -46.7322 -46.7181 -46.7162 -46.7157 -46.7117 -46.7079
   -46.7010 -46.6987 -46.6853 -46.6814 -46.6802 -46.6790 -46.6721 -46.6669
   -46.6655 -46.6650 -46.6636 -46.6632 -46.6590 -46.6570 -46.6353 -46.6334
   -46.6315 -46.6290 -46.6257 -46.6198 -46.6173 -46.6165 -46.5856 -46.5763
   -46.5740 -46.5698 -46.5635 -46.5537 -46.5491 -46.5476 -46.5370 -46.5345
   -46.5309 -46.5235 -46.5230 -46.5209 -46.5121 -46.5085 -46.5084 -46.5054
   -23.8176 -21.7102 -21.4587 -15.9525 -14.5490 -13.1058 -11.1295  -8.8784
    -8.2090  -8.1933  -7.9517  -7.1261  -6.8497  -6.5633  -6.3894  -6.3839
    -6.2001  -5.7434  -5.6438  -5.6398  -5.5579  -5.5383  -5.5087  -5.5021
    -5.4137  -5.4119  -5.4094  -5.4092  -5.2853  -5.2818  -5.1297  -5.1295
    -5.1278  -5.1254  -5.0625  -5.0547  -5.0541  -5.0521  -5.0088  -4.9547
    -4.9332  -4.9159  -4.9153  -4.9111  -4.8796  -4.8649  -4.8507  -4.8405
    -4.8336  -4.7934  -4.7880  -4.7064  -4.7053  -4.7023  -4.6982  -4.5010
    -4.4942  -4.4912  -4.4838  -4.4161  -4.4031  -4.4003  -4.3451  -4.3422
    -4.0336  -3.9054  -3.9020  -3.6646  -3.6579  -3.4909  -3.4894  -3.4871
    -3.4856  -3.4663  -3.4618  -3.4589  -3.4573  -3.3252  -3.3198  -3.3166
    -3.3112  -3.3083  -3.3082  -3.3049  -3.2987  -3.2535  -3.2505  -3.1600
    -3.1570  -3.0985  -3.0946  -3.0405  -3.0335  -3.0329  -3.0249  -2.7372
    -2.6958  -2.6925  -2.6782  -2.6738  -2.6719  -2.6716  -2.6689  -2.6676
    -2.6674  -2.6641  -2.6594  -2.5613  -2.5571  -2.5568  -2.5308  -2.5233
    -2.4301  -2.4224  -2.2533  -2.2482  -2.1828  -2.1805  -2.1778  -2.1764
    -2.1537  -2.1473  -2.0887  -2.0595  -1.8574  -1.8547  -1.8531  -1.8504
    -1.8248  -1.8166  -1.7452  -1.7419  -1.6268  -1.6052  -1.5458  -1.4445
    -1.4413  -1.4360  -1.4337  -1.3257  -1.3215  -1.3165  -1.3120  -1.3066
    -1.3004  -1.2953  -1.2529  -1.2480  -1.2061  -1.1847  -1.1802  -0.9870
    -0.9842  -0.7663  -0.7634  -0.7613  -0.7565  -0.7087  -0.7033  -0.7003
    -0.6976  -0.5808  -0.5798  -0.5789  -0.5779  -0.5541  -0.5498  -0.5454
    -0.5420  -0.4367  -0.4320  -0.3607  -0.3501  -0.3405  -0.3106  -0.3001
    -0.2967

     the Fermi energy is    -0.5175 ev

!    total energy              =  -15206.47942776 Ry
     Harris-Foulkes estimate   =  -15206.47942810 Ry
     estimated scf accuracy    <       0.00000052 Ry

     The total energy is the sum of the following terms:

     one-electron contribution =  -76587.85245266 Ry
     hartree contribution      =   38292.83051004 Ry
     xc contribution           =    -992.09259874 Ry
     ewald contribution        =   31964.12762340 Ry
     one-center paw contrib.   =   -7883.34835620 Ry
     smearing contrib. (-TS)   =      -0.14415360 Ry

     convergence has been achieved in  50 iterations

     Forces acting on atoms (Ry/au):


     negative rho (up, down):  7.155E-02 0.000E+00
     atom    1 type  1   force =     0.00000750   -0.00012923    0.00890985
     atom    2 type  1   force =     0.00079329    0.00028523   -0.00912495
     atom    3 type  1   force =     0.00019887   -0.00041503    0.01010425
     atom    4 type  1   force =     0.00002189    0.00040036   -0.01019029
     atom    5 type  1   force =    -0.00040160   -0.00018751    0.00940918
     atom    6 type  1   force =    -0.00036283   -0.00022743   -0.00966597
     atom    7 type  1   force =    -0.00014949    0.00026304    0.01045155
     atom    8 type  1   force =     0.00018086   -0.00000390   -0.01035515
     atom    9 type  1   force =    -0.00084572   -0.00014649    0.00944592
     atom   10 type  1   force =    -0.00163092   -0.00316041   -0.01100256
     atom   11 type  1   force =    -0.00018253   -0.00040231    0.01012249
     atom   12 type  1   force =    -0.00355824   -0.00027815   -0.01198231
     atom   13 type  1   force =     0.00002895   -0.00012198    0.00977830
     atom   14 type  1   force =     0.00035262   -0.00026057   -0.00968091
     atom   15 type  1   force =     0.00005973    0.00000348    0.00972516
     atom   16 type  1   force =     0.00000562    0.00078142   -0.00958394
     atom   17 type  1   force =     0.00000619    0.00019279    0.00967225
     atom   18 type  1   force =     0.00161290   -0.00318994   -0.01100653
     atom   19 type  1   force =     0.00102515    0.00048566    0.00980184
     atom   20 type  1   force =     0.00008522    0.00650040   -0.01055317
     atom   21 type  1   force =     0.00038999   -0.00019845    0.00939714
     atom   22 type  1   force =    -0.00175495    0.00323014   -0.01295404
     atom   23 type  1   force =    -0.00006265   -0.00000287    0.00972629
     atom   24 type  1   force =    -0.00021894    0.00000294   -0.01037031
     atom   25 type  1   force =     0.00083027   -0.00015659    0.00945304
     atom   26 type  1   force =    -0.00077877    0.00030266   -0.00911942
     atom   27 type  1   force =    -0.00103060    0.00048160    0.00976962
     atom   28 type  1   force =     0.00355876   -0.00029366   -0.01200271
     atom   29 type  1   force =    -0.00000950    0.00027184    0.00684196
     atom   30 type  1   force =     0.00175618    0.00324491   -0.01298333
     atom   31 type  1   force =     0.00016636    0.00023857    0.01046266
     atom   32 type  1   force =     0.00001278   -0.00043933   -0.00861141
     atom   33 type  2   force =     0.00007378   -0.01786717    0.01015115
     atom   34 type  2   force =    -0.00080716   -0.00371597   -0.01287434
     atom   35 type  2   force =    -0.00070251    0.01186422   -0.02772037
     atom   36 type  3   force =    -0.00059392    0.01008698   -0.02070280
     atom   37 type  3   force =    -0.00010998   -0.01252668    0.01680513
     atom   38 type  3   force =    -0.00041446    0.02151973   -0.01710697
     atom   39 type  3   force =     0.00107433    0.01072010   -0.00902082
     atom   40 type  3   force =     0.00129208   -0.00571827    0.04430919
     atom   41 type  4   force =     0.00005890   -0.00618011    0.00933667
     atom   42 type  4   force =     0.00039112   -0.00610046    0.00948279
     atom   43 type  4   force =    -0.00149371    0.00575331   -0.01018397
     atom   44 type  4   force =     0.00158269    0.00573757   -0.01032046
     atom   45 type  4   force =    -0.00244594   -0.00690098    0.01036138
     atom   46 type  4   force =     0.00178164   -0.00709735    0.01084382
     atom   47 type  4   force =    -0.00009134    0.00278646   -0.00119929
     atom   48 type  4   force =     0.00029810   -0.00943261    0.01395435

     Total force =     0.100054     Total SCF correction =     0.001709
 !ASE

     Writing output data file calc.save
     Check: negative starting charge=   -0.061588
     NEW-OLD atomic charge density approx. for the potential

     Check: negative/imaginary core charge=   -0.000001    0.000000
     Check: negative starting charge=   -0.064154

     negative rho (up, down):  7.395E-02 0.000E+00

     total cpu time spent up to now is     5715.0 secs

     per-process dynamical memory:   432.6 Mb

     Self-consistent Calculation

     iteration #  1     ecut=    40.42 Ry     beta=0.20
     Davidson diagonalization with overlap
     c_bands:  2 eigenvalues not converged
     ethr =  1.34E-10,  avg # of iterations = 20.0

     negative rho (up, down):  7.309E-02 0.000E+00

     total cpu time spent up to now is     6171.7 secs

     total energy              =  -15206.35808915 Ry
     Harris-Foulkes estimate   =  -15206.64392209 Ry
     estimated scf accuracy    <       0.08366501 Ry

     iteration #  2     ecut=    40.42 Ry     beta=0.20
     Davidson diagonalization with overlap
     ethr =  1.42E-05,  avg # of iterations =  1.0

     negative rho (up, down):  7.059E-02 0.000E+00

     total cpu time spent up to now is     6273.8 secs

     total energy              =  -15206.32209887 Ry
     Harris-Foulkes estimate   =  -15206.35843067 Ry
     estimated scf accuracy    <       0.05967533 Ry

     iteration #  3     ecut=    40.42 Ry     beta=0.20
     Davidson diagonalization with overlap
     ethr =  1.01E-05,  avg # of iterations =  3.0

     negative rho (up, down):  6.989E-02 0.000E+00

     total cpu time spent up to now is     6381.8 secs

     total energy              =  -15206.32916954 Ry
     Harris-Foulkes estimate   =  -15206.33000414 Ry
     estimated scf accuracy    <       0.00692271 Ry

     iteration #  4     ecut=    40.42 Ry     beta=0.20
     Davidson diagonalization with overlap
     ethr =  1.17E-06,  avg # of iterations =  9.8

     negative rho (up, down):  6.915E-02 0.000E+00

     total cpu time spent up to now is     6501.2 secs

     total energy              =  -15206.32880235 Ry
     Harris-Foulkes estimate   =  -15206.32948075 Ry
     estimated scf accuracy    <       0.00424221 Ry

     iteration #  5     ecut=    40.42 Ry     beta=0.20
     Davidson diagonalization with overlap
     ethr =  7.19E-07,  avg # of iterations =  3.0

     negative rho (up, down):  6.877E-02 0.000E+00

     total cpu time spent up to now is     6610.4 secs

     total energy              =  -15206.32870848 Ry
     Harris-Foulkes estimate   =  -15206.32899320 Ry
     estimated scf accuracy    <       0.00257296 Ry

     iteration #  6     ecut=    40.42 Ry     beta=0.20
     Davidson diagonalization with overlap
     ethr =  4.36E-07,  avg # of iterations =  3.0

     negative rho (up, down):  6.843E-02 0.000E+00

     total cpu time spent up to now is     6715.9 secs

     total energy              =  -15206.32852090 Ry
     Harris-Foulkes estimate   =  -15206.32876487 Ry
     estimated scf accuracy    <       0.00205223 Ry

     iteration #  7     ecut=    40.42 Ry     beta=0.20
     Davidson diagonalization with overlap
     ethr =  3.48E-07,  avg # of iterations =  4.8

     negative rho (up, down):  6.844E-02 0.000E+00

     total cpu time spent up to now is     6827.0 secs

     total energy              =  -15206.32843501 Ry
     Harris-Foulkes estimate   =  -15206.32857041 Ry
     estimated scf accuracy    <       0.00152097 Ry

     iteration #  8     ecut=    40.42 Ry     beta=0.20
     Davidson diagonalization with overlap
     ethr =  2.58E-07,  avg # of iterations =  2.0

     negative rho (up, down):  6.862E-02 0.000E+00

     total cpu time spent up to now is     6929.7 secs

     total energy              =  -15206.32837554 Ry
     Harris-Foulkes estimate   =  -15206.32845954 Ry
     estimated scf accuracy    <       0.00122819 Ry

     iteration #  9     ecut=    40.42 Ry     beta=0.20
     Davidson diagonalization with overlap
     ethr =  2.08E-07,  avg # of iterations =  2.0

     negative rho (up, down):  6.956E-02 0.000E+00

     total cpu time spent up to now is     7033.4 secs

     total energy              =  -15206.32819577 Ry
     Harris-Foulkes estimate   =  -15206.32838813 Ry
     estimated scf accuracy    <       0.00106189 Ry

     iteration # 10     ecut=    40.42 Ry     beta=0.20
     Davidson diagonalization with overlap
     ethr =  1.80E-07,  avg # of iterations =  5.0

     negative rho (up, down):  7.113E-02 0.000E+00

     total cpu time spent up to now is     7145.5 secs

     total energy              =  -15206.32805121 Ry
     Harris-Foulkes estimate   =  -15206.32822142 Ry
     estimated scf accuracy    <       0.00067651 Ry

     iteration # 11     ecut=    40.42 Ry     beta=0.20
     Davidson diagonalization with overlap
     c_bands:  1 eigenvalues not converged
     c_bands:  1 eigenvalues not converged
     ethr =  1.15E-07,  avg # of iterations = 13.0

     negative rho (up, down):  7.086E-02 0.000E+00

     total cpu time spent up to now is     7277.5 secs

     total energy              =  -15206.32808085 Ry
     Harris-Foulkes estimate   =  -15206.32811298 Ry
     estimated scf accuracy    <       0.00038257 Ry

     iteration # 12     ecut=    40.42 Ry     beta=0.20
     Davidson diagonalization with overlap
     ethr =  6.48E-08,  avg # of iterations =  3.0

     negative rho (up, down):  7.048E-02 0.000E+00

     total cpu time spent up to now is     7382.4 secs

     total energy              =  -15206.32795426 Ry
     Harris-Foulkes estimate   =  -15206.32808405 Ry
     estimated scf accuracy    <       0.00031376 Ry

     iteration # 13     ecut=    40.42 Ry     beta=0.20
     Davidson diagonalization with overlap
     ethr =  5.32E-08,  avg # of iterations =  3.8

     negative rho (up, down):  7.058E-02 0.000E+00

     total cpu time spent up to now is     7492.0 secs

     total energy              =  -15206.32796417 Ry
     Harris-Foulkes estimate   =  -15206.32797912 Ry
     estimated scf accuracy    <       0.00014624 Ry

     iteration # 14     ecut=    40.42 Ry     beta=0.20
     Davidson diagonalization with overlap
     ethr =  2.48E-08,  avg # of iterations =  5.5

     negative rho (up, down):  6.998E-02 0.000E+00

     total cpu time spent up to now is     7604.9 secs

     total energy              =  -15206.32795099 Ry
     Harris-Foulkes estimate   =  -15206.32796820 Ry
     estimated scf accuracy    <       0.00011187 Ry

     iteration # 15     ecut=    40.42 Ry     beta=0.20
     Davidson diagonalization with overlap
     ethr =  1.90E-08,  avg # of iterations =  2.8

     negative rho (up, down):  6.962E-02 0.000E+00

     total cpu time spent up to now is     7709.2 secs

     total energy              =  -15206.32794708 Ry
     Harris-Foulkes estimate   =  -15206.32795326 Ry
     estimated scf accuracy    <       0.00008868 Ry

     iteration # 16     ecut=    40.42 Ry     beta=0.20
     Davidson diagonalization with overlap
     ethr =  1.50E-08,  avg # of iterations =  2.8

     negative rho (up, down):  6.924E-02 0.000E+00

     total cpu time spent up to now is     7813.6 secs

     total energy              =  -15206.32793577 Ry
     Harris-Foulkes estimate   =  -15206.32794824 Ry
     estimated scf accuracy    <       0.00007276 Ry

     iteration # 17     ecut=    40.42 Ry     beta=0.20
     Davidson diagonalization with overlap
     ethr =  1.23E-08,  avg # of iterations =  2.2

     negative rho (up, down):  6.926E-02 0.000E+00

     total cpu time spent up to now is     7918.7 secs

     total energy              =  -15206.32792539 Ry
     Harris-Foulkes estimate   =  -15206.32793740 Ry
     estimated scf accuracy    <       0.00005293 Ry

     iteration # 18     ecut=    40.42 Ry     beta=0.20
     Davidson diagonalization with overlap
     ethr =  8.97E-09,  avg # of iterations =  4.5

     negative rho (up, down):  6.954E-02 0.000E+00

     total cpu time spent up to now is     8029.1 secs

     total energy              =  -15206.32791944 Ry
     Harris-Foulkes estimate   =  -15206.32792654 Ry
     estimated scf accuracy    <       0.00003943 Ry

     iteration # 19     ecut=    40.42 Ry     beta=0.20
     Davidson diagonalization with overlap
     c_bands:  1 eigenvalues not converged
     ethr =  6.68E-09,  avg # of iterations =  7.8

     negative rho (up, down):  6.964E-02 0.000E+00

     total cpu time spent up to now is     8144.2 secs

     total energy              =  -15206.32791915 Ry
     Harris-Foulkes estimate   =  -15206.32792066 Ry
     estimated scf accuracy    <       0.00003219 Ry

     iteration # 20     ecut=    40.42 Ry     beta=0.20
     Davidson diagonalization with overlap
     c_bands:  2 eigenvalues not converged
     ethr =  5.46E-09,  avg # of iterations = 13.0

     negative rho (up, down):  7.037E-02 0.000E+00

     total cpu time spent up to now is     8265.5 secs

     total energy              =  -15206.32791048 Ry
     Harris-Foulkes estimate   =  -15206.32791955 Ry
     estimated scf accuracy    <       0.00002820 Ry

     iteration # 21     ecut=    40.42 Ry     beta=0.20
     Davidson diagonalization with overlap
     c_bands:  1 eigenvalues not converged
     ethr =  4.78E-09,  avg # of iterations = 12.8

     negative rho (up, down):  7.048E-02 0.000E+00

     total cpu time spent up to now is     8393.0 secs

     total energy              =  -15206.32791276 Ry
     Harris-Foulkes estimate   =  -15206.32791342 Ry
     estimated scf accuracy    <       0.00003467 Ry

     iteration # 22     ecut=    40.42 Ry     beta=0.20
     Davidson diagonalization with overlap
     ethr =  4.78E-09,  avg # of iterations =  3.2

     negative rho (up, down):  7.080E-02 0.000E+00

     total cpu time spent up to now is     8499.7 secs

     total energy              =  -15206.32790958 Ry
     Harris-Foulkes estimate   =  -15206.32791295 Ry
     estimated scf accuracy    <       0.00002798 Ry

     iteration # 23     ecut=    40.42 Ry     beta=0.20
     Davidson diagonalization with overlap
     ethr =  4.74E-09,  avg # of iterations =  3.8

     negative rho (up, down):  7.101E-02 0.000E+00

     total cpu time spent up to now is     8608.6 secs

     total energy              =  -15206.32790922 Ry
     Harris-Foulkes estimate   =  -15206.32791057 Ry
     estimated scf accuracy    <       0.00001310 Ry

     iteration # 24     ecut=    40.42 Ry     beta=0.20
     Davidson diagonalization with overlap
     ethr =  2.22E-09,  avg # of iterations =  2.0

     negative rho (up, down):  7.184E-02 0.000E+00

     total cpu time spent up to now is     8715.2 secs

     total energy              =  -15206.32790654 Ry
     Harris-Foulkes estimate   =  -15206.32790950 Ry
     estimated scf accuracy    <       0.00001213 Ry

     iteration # 25     ecut=    40.42 Ry     beta=0.20
     Davidson diagonalization with overlap
     ethr =  2.06E-09,  avg # of iterations =  3.0

     negative rho (up, down):  7.211E-02 0.000E+00

     total cpu time spent up to now is     8822.2 secs

     total energy              =  -15206.32790543 Ry
     Harris-Foulkes estimate   =  -15206.32790688 Ry
     estimated scf accuracy    <       0.00000874 Ry

     iteration # 26     ecut=    40.42 Ry     beta=0.20
     Davidson diagonalization with overlap
     ethr =  1.48E-09,  avg # of iterations =  3.2

     negative rho (up, down):  7.310E-02 0.000E+00

     total cpu time spent up to now is     8927.3 secs

     total energy              =  -15206.32790296 Ry
     Harris-Foulkes estimate   =  -15206.32790560 Ry
     estimated scf accuracy    <       0.00000648 Ry

     iteration # 27     ecut=    40.42 Ry     beta=0.20
     Davidson diagonalization with overlap
     ethr =  1.10E-09,  avg # of iterations =  7.5

     negative rho (up, down):  7.307E-02 0.000E+00

     total cpu time spent up to now is     9052.3 secs

     total energy              =  -15206.32790283 Ry
     Harris-Foulkes estimate   =  -15206.32790394 Ry
     estimated scf accuracy    <       0.00001702 Ry

     iteration # 28     ecut=    40.42 Ry     beta=0.20
     Davidson diagonalization with overlap
     ethr =  1.10E-09,  avg # of iterations =  5.2

     negative rho (up, down):  7.338E-02 0.000E+00

     total cpu time spent up to now is     9163.0 secs

     total energy              =  -15206.32790256 Ry
     Harris-Foulkes estimate   =  -15206.32790329 Ry
     estimated scf accuracy    <       0.00000400 Ry

     iteration # 29     ecut=    40.42 Ry     beta=0.20
     Davidson diagonalization with overlap
     ethr =  6.77E-10,  avg # of iterations =  6.5

     negative rho (up, down):  7.375E-02 0.000E+00

     total cpu time spent up to now is     9274.5 secs

     total energy              =  -15206.32790202 Ry
     Harris-Foulkes estimate   =  -15206.32790281 Ry
     estimated scf accuracy    <       0.00000339 Ry

     iteration # 30     ecut=    40.42 Ry     beta=0.20
     Davidson diagonalization with overlap
     c_bands:  2 eigenvalues not converged
     ethr =  5.75E-10,  avg # of iterations =  8.0

     negative rho (up, down):  7.410E-02 0.000E+00

     total cpu time spent up to now is     9391.5 secs

     total energy              =  -15206.32790125 Ry
     Harris-Foulkes estimate   =  -15206.32790220 Ry
     estimated scf accuracy    <       0.00000519 Ry

     iteration # 31     ecut=    40.42 Ry     beta=0.20
     Davidson diagonalization with overlap
     ethr =  5.75E-10,  avg # of iterations =  3.2

     negative rho (up, down):  7.422E-02 0.000E+00

     total cpu time spent up to now is     9497.1 secs

     total energy              =  -15206.32790123 Ry
     Harris-Foulkes estimate   =  -15206.32790139 Ry
     estimated scf accuracy    <       0.00000213 Ry

     iteration # 32     ecut=    40.42 Ry     beta=0.20
     Davidson diagonalization with overlap
     ethr =  3.61E-10,  avg # of iterations =  2.0

     negative rho (up, down):  7.421E-02 0.000E+00

     total cpu time spent up to now is     9599.1 secs

     total energy              =  -15206.32790118 Ry
     Harris-Foulkes estimate   =  -15206.32790125 Ry
     estimated scf accuracy    <       0.00000176 Ry

     iteration # 33     ecut=    40.42 Ry     beta=0.20
     Davidson diagonalization with overlap
     ethr =  2.98E-10,  avg # of iterations =  2.0

     negative rho (up, down):  7.416E-02 0.000E+00

     total cpu time spent up to now is     9701.9 secs

     total energy              =  -15206.32790114 Ry
     Harris-Foulkes estimate   =  -15206.32790120 Ry
     estimated scf accuracy    <       0.00000120 Ry

     iteration # 34     ecut=    40.42 Ry     beta=0.20
     Davidson diagonalization with overlap
     c_bands:  4 eigenvalues not converged
     ethr =  2.03E-10,  avg # of iterations = 14.8

     negative rho (up, down):  7.425E-02 0.000E+00

     total cpu time spent up to now is     9834.2 secs

     total energy              =  -15206.32790109 Ry
     Harris-Foulkes estimate   =  -15206.32790127 Ry
     estimated scf accuracy    <       0.00000095 Ry

     iteration # 35     ecut=    40.42 Ry     beta=0.20
     Davidson diagonalization with overlap
     c_bands:  3 eigenvalues not converged
     ethr =  1.61E-10,  avg # of iterations =  6.5

     negative rho (up, down):  7.439E-02 0.000E+00

     total cpu time spent up to now is     9939.2 secs

     End of self-consistent calculation

          k = 0.0000 0.0000 0.0000 ( 87467 PWs)   bands (ev):

   -78.9295 -78.9050 -78.8744 -78.8727 -78.8698 -78.8687 -78.8666 -78.8531
   -78.8405 -78.8249 -78.8246 -78.8231 -78.8222 -78.8209 -78.8189 -78.8182
   -78.8176 -78.8171 -78.8167 -78.8149 -78.8132 -78.8115 -78.8111 -78.7993
   -78.7991 -78.7989 -78.7971 -78.7942 -78.7932 -78.7915 -78.7902 -78.7879
   -47.0701 -47.0690 -47.0687 -47.0092 -47.0086 -47.0081 -46.9595 -46.9582
   -46.9571 -46.9564 -46.9556 -46.9544 -46.9252 -46.9229 -46.9222 -46.9219
   -46.9209 -46.9203 -46.8291 -46.8079 -46.8071 -46.8047 -46.8034 -46.8025
   -46.7994 -46.7799 -46.7796 -46.7752 -46.7720 -46.7718 -46.7672 -46.7491
   -46.7482 -46.7449 -46.7437 -46.7398 -46.7389 -46.6645 -46.6645 -46.6577
   -46.6573 -46.6556 -46.6539 -46.6381 -46.6319 -46.6314 -46.6260 -46.6199
   -46.6187 -46.6164 -46.6157 -46.6150 -46.5721 -46.5585 -46.5579 -46.5562
   -46.5518 -46.5506 -46.5495 -46.5477 -46.5462 -46.5407 -46.5352 -46.5340
   -46.5312 -46.5290 -46.5283 -46.5278 -46.5240 -46.5238 -46.4729 -46.4727
   -46.4720 -46.4713 -46.4692 -46.4658 -46.4650 -46.4640 -46.4424 -46.4190
   -46.4180 -46.4167 -46.4132 -46.4131 -46.4070 -46.4061 -46.4048 -46.4042
   -46.4036 -46.3732 -46.3697 -46.3679 -46.3674 -46.3667 -46.3634 -46.3608
   -25.6186 -23.7696 -21.3024 -16.2516 -14.4476 -12.7452 -10.2226  -9.2735
    -8.6616  -8.5884  -8.2395  -7.6675  -7.5316  -6.9673  -6.8130  -6.3657
    -6.3352  -5.8879  -5.7711  -5.7706  -5.7699  -5.5642  -5.4199  -5.4192
    -5.4175  -5.4164  -5.4106  -5.3994  -5.3873  -5.3855  -5.3760  -5.2882
    -5.2543  -5.0856  -5.0785  -5.0724  -4.8624  -4.8621  -4.8614  -4.8603
    -4.8578  -4.8495  -4.8461  -4.8459  -4.8428  -4.8405  -4.8355  -4.8275
    -4.4480  -4.4103  -4.4033  -4.3986  -4.3961  -4.3916  -4.3727  -4.2921
    -4.2882  -4.2865  -4.2861  -4.2813  -4.2786  -4.1493  -4.1377  -4.1293
    -4.1270  -4.1267  -4.1208  -3.8261  -3.5370  -3.4525  -3.4313  -3.4197
    -3.2034  -3.2032  -3.2008  -3.1983  -3.1979  -3.1777  -3.1367  -3.1336
    -3.1328  -3.1316  -3.1195  -3.0990  -3.0629  -2.9825  -2.9825  -2.9538
    -2.9488  -2.9465  -2.9458  -2.9374  -2.9215  -2.8024  -2.8020  -2.7100
    -2.7081  -2.7069  -2.7040  -2.7014  -2.6995  -2.6656  -2.6633  -2.6610
    -2.6572  -2.6329  -2.6318  -2.3811  -2.3752  -2.3721  -2.3702  -2.3683
    -2.3570  -2.3402  -2.3379  -2.3326  -2.3073  -2.3031  -2.3020  -2.2904
    -2.2792  -2.2701  -2.0988  -2.0968  -2.0951  -2.0936  -2.0858  -2.0840
    -1.7745  -1.5113  -1.4977  -1.4971  -1.4923  -1.4862  -1.4861  -1.4397
    -1.4376  -1.4321  -1.4224  -1.4186  -1.3626  -1.2813  -1.2440  -1.2401
    -1.1724  -1.0105  -1.0073  -0.9269  -0.9219  -0.9204  -0.9159  -0.9118
    -0.9109  -0.8929  -0.8926  -0.8904  -0.8822  -0.8806  -0.8775  -0.7320
    -0.7282  -0.7249  -0.7179  -0.7123  -0.6981  -0.6837  -0.6802  -0.6222
    -0.2115  -0.2105  -0.2037   0.0095   0.0110   0.0335   0.0346   0.0410
     0.0425

          k = 0.0000-0.0537 0.0000 ( 87256 PWs)   bands (ev):

   -78.9266 -78.9039 -78.8934 -78.8806 -78.8689 -78.8485 -78.8450 -78.8440
   -78.8419 -78.8399 -78.8371 -78.8328 -78.8279 -78.8267 -78.8206 -78.8186
   -78.8183 -78.8170 -78.8109 -78.8087 -78.8056 -78.8044 -78.8038 -78.8033
   -78.8018 -78.7979 -78.7965 -78.7954 -78.7952 -78.7928 -78.7904 -78.7882
   -47.0247 -47.0242 -47.0223 -47.0222 -46.9942 -46.9881 -46.9719 -46.9715
   -46.9690 -46.9686 -46.9633 -46.9619 -46.9404 -46.9370 -46.9154 -46.9132
   -46.8975 -46.8975 -46.8964 -46.8941 -46.8707 -46.8674 -46.8655 -46.8640
   -46.8147 -46.8128 -46.8019 -46.7883 -46.7809 -46.7794 -46.7266 -46.7218
   -46.7053 -46.7018 -46.6911 -46.6868 -46.6857 -46.6811 -46.6636 -46.6493
   -46.6465 -46.6439 -46.6194 -46.6141 -46.6096 -46.6074 -46.6049 -46.6000
   -46.5946 -46.5945 -46.5920 -46.5864 -46.5834 -46.5832 -46.5807 -46.5762
   -46.5650 -46.5609 -46.5411 -46.5333 -46.5327 -46.5294 -46.5292 -46.5279
   -46.5262 -46.5252 -46.5226 -46.5204 -46.5108 -46.5096 -46.4962 -46.4931
   -46.4904 -46.4872 -46.4792 -46.4757 -46.4666 -46.4649 -46.4484 -46.4348
   -46.4247 -46.4220 -46.4210 -46.4146 -46.4111 -46.4090 -46.3966 -46.3939
   -46.3860 -46.3802 -46.3768 -46.3749 -46.3626 -46.3591 -46.3590 -46.3573
   -25.6186 -23.7696 -21.3024 -16.2515 -14.4476 -12.7451 -10.2225  -9.2736
    -8.6616  -8.5884  -8.2395  -7.6673  -7.5312  -6.9650  -6.4172  -6.3355
    -6.2858  -6.2361  -5.5757  -5.5720  -5.5608  -5.4672  -5.4507  -5.4259
    -5.4212  -5.3589  -5.3581  -5.3521  -5.3467  -5.2905  -5.2543  -5.1755
    -5.1640  -5.0667  -5.0623  -5.0611  -5.0544  -4.9621  -4.9591  -4.9541
    -4.9531  -4.8798  -4.8685  -4.8681  -4.8628  -4.8293  -4.8194  -4.8173
    -4.8135  -4.7317  -4.7290  -4.6138  -4.6111  -4.6084  -4.6062  -4.4721
    -4.4491  -4.4453  -4.4332  -4.3961  -4.3518  -4.3487  -4.2830  -4.2779
    -3.8719  -3.8214  -3.8069  -3.6153  -3.5584  -3.5046  -3.3636  -3.3527
    -3.3155  -3.3138  -3.3021  -3.2868  -3.2802  -3.2715  -3.1896  -3.1825
    -3.1727  -3.1678  -3.1569  -3.1516  -3.1461  -3.1396  -3.1214  -3.1151
    -2.9883  -2.9819  -2.9451  -2.9432  -2.9311  -2.9286  -2.9202  -2.9062
    -2.6497  -2.6447  -2.6309  -2.6290  -2.6054  -2.5949  -2.5663  -2.5631
    -2.5501  -2.5498  -2.5101  -2.4914  -2.4720  -2.4631  -2.4114  -2.4043
    -2.2795  -2.2737  -2.2358  -2.2347  -2.0729  -2.0654  -2.0558  -2.0546
    -2.0442  -2.0395  -1.9472  -1.9110  -1.7730  -1.7305  -1.7267  -1.7215
    -1.7145  -1.6937  -1.6928  -1.6306  -1.6250  -1.4518  -1.4400  -1.3023
    -1.2997  -1.2922  -1.2859  -1.1435  -1.1350  -1.1321  -1.1275  -1.1255
    -1.1233  -1.1153  -1.1064  -1.1062  -0.9817  -0.9479  -0.9336  -0.8044
    -0.7981  -0.6031  -0.5980  -0.5944  -0.5913  -0.4951  -0.4902  -0.4869
    -0.4858  -0.3982  -0.3933  -0.3819  -0.3762  -0.3744  -0.3743  -0.3380
    -0.3343  -0.2363  -0.2357  -0.1943  -0.1662  -0.1453  -0.1262  -0.1168
    -0.1073

          k = 0.0465-0.0268 0.0000 ( 87256 PWs)   bands (ev):

   -78.9266 -78.9040 -78.8934 -78.8807 -78.8684 -78.8473 -78.8459 -78.8440
   -78.8435 -78.8401 -78.8361 -78.8331 -78.8277 -78.8256 -78.8222 -78.8189
   -78.8175 -78.8159 -78.8119 -78.8082 -78.8057 -78.8048 -78.8034 -78.8021
   -78.8008 -78.7995 -78.7983 -78.7953 -78.7941 -78.7923 -78.7910 -78.7879
   -47.0264 -47.0248 -47.0226 -47.0208 -46.9906 -46.9900 -46.9722 -46.9717
   -46.9690 -46.9676 -46.9631 -46.9625 -46.9400 -46.9371 -46.9152 -46.9145
   -46.8984 -46.8974 -46.8968 -46.8938 -46.8705 -46.8671 -46.8655 -46.8625
   -46.8154 -46.8120 -46.8021 -46.7888 -46.7811 -46.7790 -46.7269 -46.7225
   -46.7060 -46.7016 -46.6907 -46.6866 -46.6838 -46.6819 -46.6631 -46.6511
   -46.6465 -46.6449 -46.6197 -46.6148 -46.6092 -46.6072 -46.6040 -46.6005
   -46.5949 -46.5925 -46.5920 -46.5859 -46.5829 -46.5824 -46.5815 -46.5768
   -46.5639 -46.5609 -46.5401 -46.5342 -46.5317 -46.5302 -46.5292 -46.5270
   -46.5258 -46.5251 -46.5228 -46.5222 -46.5117 -46.5084 -46.4966 -46.4931
   -46.4925 -46.4866 -46.4785 -46.4761 -46.4668 -46.4647 -46.4461 -46.4349
   -46.4253 -46.4240 -46.4216 -46.4161 -46.4091 -46.4088 -46.3951 -46.3922
   -46.3868 -46.3807 -46.3769 -46.3766 -46.3621 -46.3594 -46.3590 -46.3568
   -25.6186 -23.7696 -21.3024 -16.2516 -14.4476 -12.7451 -10.2225  -9.2735
    -8.6616  -8.5883  -8.2395  -7.6674  -7.5312  -6.9652  -6.4105  -6.3356
    -6.2874  -6.2429  -5.5773  -5.5727  -5.5614  -5.4641  -5.4447  -5.4274
    -5.4227  -5.3556  -5.3543  -5.3519  -5.3508  -5.2918  -5.2543  -5.1775
    -5.1697  -5.0660  -5.0636  -5.0591  -5.0561  -4.9587  -4.9580  -4.9560
    -4.9493  -4.8738  -4.8683  -4.8670  -4.8651  -4.8296  -4.8223  -4.8188
    -4.8162  -4.7336  -4.7255  -4.6151  -4.6123  -4.6057  -4.6029  -4.4821
    -4.4487  -4.4480  -4.4384  -4.3866  -4.3534  -4.3449  -4.2829  -4.2795
    -3.8467  -3.8206  -3.8108  -3.6192  -3.5694  -3.4989  -3.3627  -3.3518
    -3.3181  -3.3133  -3.3054  -3.2938  -3.2837  -3.2571  -3.1878  -3.1843
    -3.1737  -3.1706  -3.1590  -3.1532  -3.1453  -3.1416  -3.1350  -3.1031
    -2.9899  -2.9805  -2.9484  -2.9441  -2.9358  -2.9287  -2.9201  -2.9028
    -2.6465  -2.6392  -2.6307  -2.6299  -2.6031  -2.5978  -2.5685  -2.5623
    -2.5547  -2.5495  -2.5201  -2.4907  -2.4685  -2.4662  -2.4119  -2.3976
    -2.2816  -2.2663  -2.2408  -2.2333  -2.0723  -2.0594  -2.0581  -2.0545
    -2.0449  -2.0421  -1.9406  -1.9109  -1.7751  -1.7277  -1.7258  -1.7243
    -1.7183  -1.6946  -1.6857  -1.6325  -1.6254  -1.4585  -1.4347  -1.3015
    -1.2984  -1.2959  -1.2907  -1.1389  -1.1343  -1.1314  -1.1274  -1.1252
    -1.1226  -1.1182  -1.1070  -1.0928  -0.9923  -0.9484  -0.9375  -0.8060
    -0.7960  -0.6005  -0.5981  -0.5966  -0.5893  -0.4957  -0.4898  -0.4870
    -0.4849  -0.3977  -0.3922  -0.3815  -0.3785  -0.3764  -0.3737  -0.3380
    -0.3336  -0.2401  -0.2367  -0.1922  -0.1643  -0.1474  -0.1242  -0.1161
    -0.1083

          k =-0.0465-0.0268 0.0000 ( 87256 PWs)   bands (ev):

   -78.9266 -78.9040 -78.8934 -78.8808 -78.8684 -78.8473 -78.8459 -78.8441
   -78.8435 -78.8401 -78.8361 -78.8332 -78.8277 -78.8257 -78.8222 -78.8189
   -78.8175 -78.8159 -78.8119 -78.8082 -78.8057 -78.8049 -78.8034 -78.8021
   -78.8009 -78.7995 -78.7982 -78.7953 -78.7941 -78.7924 -78.7910 -78.7879
   -47.0264 -47.0248 -47.0227 -47.0208 -46.9906 -46.9900 -46.9722 -46.9718
   -46.9691 -46.9676 -46.9630 -46.9624 -46.9399 -46.9371 -46.9152 -46.9145
   -46.8984 -46.8973 -46.8968 -46.8938 -46.8705 -46.8671 -46.8655 -46.8625
   -46.8155 -46.8121 -46.8020 -46.7888 -46.7810 -46.7790 -46.7270 -46.7226
   -46.7061 -46.7017 -46.6907 -46.6865 -46.6838 -46.6818 -46.6630 -46.6511
   -46.6465 -46.6450 -46.6197 -46.6149 -46.6092 -46.6072 -46.6040 -46.6005
   -46.5948 -46.5925 -46.5920 -46.5859 -46.5829 -46.5824 -46.5816 -46.5768
   -46.5639 -46.5608 -46.5401 -46.5342 -46.5317 -46.5302 -46.5292 -46.5270
   -46.5258 -46.5251 -46.5227 -46.5222 -46.5117 -46.5084 -46.4967 -46.4932
   -46.4925 -46.4866 -46.4785 -46.4760 -46.4667 -46.4647 -46.4461 -46.4349
   -46.4253 -46.4241 -46.4217 -46.4161 -46.4091 -46.4087 -46.3951 -46.3922
   -46.3867 -46.3808 -46.3769 -46.3766 -46.3621 -46.3594 -46.3590 -46.3568
   -25.6186 -23.7696 -21.3024 -16.2516 -14.4476 -12.7451 -10.2225  -9.2735
    -8.6616  -8.5884  -8.2395  -7.6674  -7.5312  -6.9652  -6.4104  -6.3356
    -6.2873  -6.2432  -5.5773  -5.5726  -5.5616  -5.4642  -5.4446  -5.4274
    -5.4227  -5.3556  -5.3543  -5.3519  -5.3508  -5.2917  -5.2543  -5.1773
    -5.1697  -5.0660  -5.0637  -5.0590  -5.0561  -4.9587  -4.9580  -4.9561
    -4.9493  -4.8734  -4.8684  -4.8671  -4.8651  -4.8298  -4.8224  -4.8187
    -4.8166  -4.7336  -4.7255  -4.6151  -4.6124  -4.6058  -4.6029  -4.4806
    -4.4487  -4.4478  -4.4389  -4.3872  -4.3535  -4.3443  -4.2829  -4.2796
    -3.8464  -3.8210  -3.8119  -3.6180  -3.5694  -3.4994  -3.3628  -3.3517
    -3.3180  -3.3133  -3.3053  -3.2941  -3.2839  -3.2561  -3.1878  -3.1843
    -3.1737  -3.1705  -3.1590  -3.1532  -3.1452  -3.1417  -3.1349  -3.1037
    -2.9899  -2.9804  -2.9484  -2.9441  -2.9358  -2.9287  -2.9202  -2.9027
    -2.6465  -2.6393  -2.6306  -2.6298  -2.6031  -2.5977  -2.5686  -2.5623
    -2.5548  -2.5494  -2.5200  -2.4908  -2.4686  -2.4661  -2.4118  -2.3978
    -2.2816  -2.2664  -2.2408  -2.2334  -2.0723  -2.0595  -2.0580  -2.0546
    -2.0448  -2.0422  -1.9406  -1.9109  -1.7750  -1.7277  -1.7258  -1.7243
    -1.7184  -1.6945  -1.6856  -1.6326  -1.6254  -1.4583  -1.4348  -1.3016
    -1.2984  -1.2957  -1.2907  -1.1389  -1.1341  -1.1316  -1.1274  -1.1253
    -1.1226  -1.1181  -1.1069  -1.0932  -0.9921  -0.9483  -0.9375  -0.8060
    -0.7960  -0.6004  -0.5981  -0.5966  -0.5893  -0.4958  -0.4897  -0.4871
    -0.4849  -0.3977  -0.3922  -0.3815  -0.3785  -0.3763  -0.3736  -0.3379
    -0.3336  -0.2400  -0.2368  -0.1919  -0.1646  -0.1474  -0.1242  -0.1161
    -0.1083

     the Fermi energy is    -0.3241 ev

!    total energy              =  -15206.32790080 Ry
     Harris-Foulkes estimate   =  -15206.32790112 Ry
     estimated scf accuracy    <       0.00000038 Ry

     The total energy is the sum of the following terms:

     one-electron contribution =  -77028.91839528 Ry
     hartree contribution      =   38515.79506664 Ry
     xc contribution           =    -992.70378812 Ry
     ewald contribution        =   32183.00970663 Ry
     one-center paw contrib.   =   -7883.36681646 Ry
     smearing contrib. (-TS)   =      -0.14367421 Ry

     convergence has been achieved in  35 iterations

     Forces acting on atoms (Ry/au):


     negative rho (up, down):  7.439E-02 0.000E+00
     atom    1 type  1   force =    -0.00001435    0.00013920   -0.00404016
     atom    2 type  1   force =    -0.00052000   -0.00044886    0.00408213
     atom    3 type  1   force =     0.00036726   -0.00069367   -0.00396160
     atom    4 type  1   force =    -0.00002634   -0.00008247    0.00389320
     atom    5 type  1   force =     0.00015471   -0.00029448   -0.00493969
     atom    6 type  1   force =     0.00068026    0.00043541    0.00354500
     atom    7 type  1   force =     0.00002314    0.00124113   -0.00432054
     atom    8 type  1   force =     0.00003685    0.00027400    0.00380094
     atom    9 type  1   force =    -0.00069513   -0.00010687   -0.00429220
     atom   10 type  1   force =     0.00063507    0.00072838    0.00183501
     atom   11 type  1   force =    -0.00037210   -0.00072044   -0.00398843
     atom   12 type  1   force =     0.00001547   -0.00022870    0.00249994
     atom   13 type  1   force =    -0.00003956    0.00026511   -0.00393075
     atom   14 type  1   force =    -0.00067997    0.00048539    0.00352545
     atom   15 type  1   force =     0.00038353   -0.00008751   -0.00372699
     atom   16 type  1   force =    -0.00001603   -0.00041153    0.00384474
     atom   17 type  1   force =     0.00000203    0.00004410   -0.00396537
     atom   18 type  1   force =    -0.00061338    0.00075538    0.00185358
     atom   19 type  1   force =     0.00036181    0.00009980   -0.00294244
     atom   20 type  1   force =     0.00008098    0.00073402    0.01573715
     atom   21 type  1   force =    -0.00013792   -0.00025165   -0.00492006
     atom   22 type  1   force =    -0.00018001    0.00090135    0.00210085
     atom   23 type  1   force =    -0.00037402   -0.00007881   -0.00374597
     atom   24 type  1   force =     0.00001592    0.00024018    0.00377329
     atom   25 type  1   force =     0.00069553   -0.00010656   -0.00430648
     atom   26 type  1   force =     0.00053147   -0.00046046    0.00401249
     atom   27 type  1   force =    -0.00032938    0.00010140   -0.00299103
     atom   28 type  1   force =     0.00000545   -0.00020427    0.00248979
     atom   29 type  1   force =     0.00000835    0.00029378   -0.00565516
     atom   30 type  1   force =     0.00019461    0.00084593    0.00208217
     atom   31 type  1   force =    -0.00004914    0.00124714   -0.00432926
     atom   32 type  1   force =    -0.00002142    0.00123681    0.00417556
     atom   33 type  2   force =     0.00794663    0.29772067   -0.37103153
     atom   34 type  2   force =     0.00051589   -0.01405519    0.02097864
     atom   35 type  2   force =     0.01270040   -0.56066268    0.55786503
[...]
    -2.4085  -2.3865  -2.3789  -2.3754  -2.2704  -2.2697  -2.2530  -2.2522
    -2.2514  -2.2384  -2.1696  -2.1691  -2.0263  -1.9880  -1.9876  -1.8331
    -1.8310  -1.7978  -1.7967  -1.7313  -1.7271  -1.7187  -1.6751  -1.6672
    -1.5563  -1.4876  -1.4803  -1.4302  -1.3924  -1.3445  -1.3112  -1.2768
    -1.2726  -1.2331  -1.2308  -1.2014  -1.2012  -1.1857  -1.1817  -1.1351
    -1.1323  -1.0289  -1.0282  -1.0182  -0.9396  -0.7792  -0.7653  -0.7646
    -0.6949  -0.6942  -0.6791  -0.6347  -0.6298  -0.6278  -0.6160  -0.6132
    -0.5859  -0.5848  -0.4932  -0.4920  -0.4447  -0.4396  -0.4388  -0.4197
    -0.4123

          k = 0.0465-0.0000 0.0000 ( 87299 PWs)   bands (ev):

   -79.1172 -79.1059 -79.1049 -79.0778 -79.0744 -79.0653 -79.0611 -79.0575
   -79.0557 -79.0547 -79.0538 -79.0449 -79.0438 -79.0420 -79.0399 -79.0372
   -79.0352 -79.0303 -79.0273 -79.0264 -79.0260 -79.0239 -79.0234 -79.0191
   -79.0190 -79.0182 -79.0171 -79.0164 -79.0138 -79.0130 -79.0120 -79.0106
   -47.2412 -47.2182 -47.2179 -47.2046 -47.2044 -47.1913 -47.1761 -47.1755
   -47.1704 -47.1698 -47.1578 -47.1575 -47.1447 -47.1446 -47.1346 -47.1341
   -47.1271 -47.1042 -47.1040 -47.0961 -47.0713 -47.0602 -47.0563 -47.0101
   -47.0083 -46.9959 -46.9937 -46.9847 -46.9697 -46.9574 -46.9565 -46.9488
   -46.9484 -46.8971 -46.8768 -46.8766 -46.8684 -46.8683 -46.8605 -46.8463
   -46.8449 -46.8405 -46.8391 -46.8286 -46.8283 -46.8224 -46.8220 -46.8179
   -46.8018 -46.8010 -46.7976 -46.7971 -46.7814 -46.7805 -46.7782 -46.7716
   -46.7702 -46.7697 -46.7625 -46.7622 -46.7589 -46.7582 -46.7483 -46.7481
   -46.7473 -46.7350 -46.7347 -46.7322 -46.7223 -46.7214 -46.7207 -46.7195
   -46.7126 -46.7124 -46.7053 -46.6900 -46.6771 -46.6644 -46.6605 -46.6602
   -46.6434 -46.6434 -46.6414 -46.6409 -46.6265 -46.6230 -46.6206 -46.6194
   -46.6114 -46.6109 -46.6045 -46.5992 -46.5967 -46.5938 -46.5914 -46.5910
   -23.5322 -21.8646 -21.3065 -15.8090 -14.4339 -12.8539 -10.5799  -8.8591
    -8.0810  -7.9274  -7.6410  -6.9218  -6.8065  -6.5556  -6.5416  -6.0905
    -6.0883  -5.9204  -5.6740  -5.6737  -5.6617  -5.5839  -5.5148  -5.5097
    -5.5086  -5.3301  -5.3297  -5.3210  -5.3200  -5.2574  -5.2565  -5.2200
    -5.2178  -5.1607  -5.1538  -5.1536  -5.1329  -5.1327  -5.0412  -5.0348
    -5.0081  -5.0052  -4.9802  -4.9617  -4.9593  -4.9342  -4.8110  -4.8091
    -4.8000  -4.7996  -4.7954  -4.7643  -4.7629  -4.7559  -4.7545  -4.6837
    -4.6230  -4.6224  -4.4963  -4.3602  -4.3429  -4.2716  -4.2397  -4.2395
    -4.2377  -3.7238  -3.7015  -3.6982  -3.6797  -3.6778  -3.5823  -3.5778
    -3.5760  -3.5630  -3.5208  -3.5185  -3.4762  -3.4751  -3.4736  -3.4439
    -3.4406  -3.4284  -3.4262  -3.3335  -3.3310  -3.3028  -3.2827  -3.2570
    -3.2418  -3.2410  -3.2312  -3.1449  -3.1028  -3.0679  -3.0672  -2.9442
    -2.9407  -2.8578  -2.8325  -2.7809  -2.7803  -2.6875  -2.6612  -2.6600
    -2.5460  -2.5336  -2.4697  -2.4602  -2.4541  -2.4298  -2.4247  -2.4107
    -2.4099  -2.3861  -2.3789  -2.3753  -2.2703  -2.2696  -2.2533  -2.2522
    -2.2517  -2.2370  -2.1698  -2.1692  -2.0275  -1.9885  -1.9869  -1.8334
    -1.8306  -1.7983  -1.7966  -1.7319  -1.7277  -1.7157  -1.6753  -1.6689
    -1.5556  -1.4904  -1.4761  -1.4299  -1.3931  -1.3444  -1.3120  -1.2787
    -1.2701  -1.2330  -1.2311  -1.2016  -1.2013  -1.1854  -1.1818  -1.1357
    -1.1314  -1.0291  -1.0280  -1.0188  -0.9394  -0.7792  -0.7653  -0.7648
    -0.6948  -0.6944  -0.6790  -0.6347  -0.6298  -0.6281  -0.6160  -0.6126
    -0.5861  -0.5846  -0.4937  -0.4917  -0.4448  -0.4397  -0.4388  -0.4192
    -0.4134

     the Fermi energy is    -0.6114 ev

!    total energy              =  -15206.50601547 Ry
     Harris-Foulkes estimate   =  -15206.50601565 Ry
     estimated scf accuracy    <       0.00000012 Ry

     The total energy is the sum of the following terms:

     one-electron contribution =  -76043.73964520 Ry
     hartree contribution      =   38019.69670049 Ry
     xc contribution           =    -991.89286051 Ry
     ewald contribution        =   31692.93093302 Ry
     one-center paw contrib.   =   -7883.35740728 Ry
     smearing contrib. (-TS)   =      -0.14373600 Ry

     convergence has been achieved in  13 iterations

     Forces acting on atoms (Ry/au):


     negative rho (up, down):  7.040E-02 0.000E+00
     atom    1 type  1   force =    -0.00002418   -0.00004980    0.01328217
     atom    2 type  1   force =     0.00029217    0.00019484   -0.01326230
     atom    3 type  1   force =     0.00009812   -0.00010787    0.01353689
     atom    4 type  1   force =    -0.00000113    0.00015634   -0.01357250
     atom    5 type  1   force =     0.00003522   -0.00016770    0.01338061
     atom    6 type  1   force =    -0.00001176    0.00001063   -0.01336309
     atom    7 type  1   force =    -0.00014892    0.00029241    0.01348638
     atom    8 type  1   force =     0.00022832   -0.00001386   -0.01341677
     atom    9 type  1   force =    -0.00031511   -0.00008409    0.01334524
     atom   10 type  1   force =    -0.00065519   -0.00103493   -0.01469552
     atom   11 type  1   force =    -0.00010730   -0.00013680    0.01352543
     atom   12 type  1   force =    -0.00084030   -0.00011307   -0.01399592
     atom   13 type  1   force =    -0.00000305   -0.00015166    0.01350680
     atom   14 type  1   force =     0.00002233    0.00008208   -0.01337340
     atom   15 type  1   force =    -0.00000075    0.00009362    0.01346875
     atom   16 type  1   force =     0.00001294    0.00016157   -0.01318375
     atom   17 type  1   force =    -0.00002305   -0.00001513    0.01351212
     atom   18 type  1   force =     0.00063083   -0.00095224   -0.01459941
     atom   19 type  1   force =     0.00024525    0.00027899    0.01306257
     atom   20 type  1   force =    -0.00000801   -0.00017197   -0.00936227
     atom   21 type  1   force =    -0.00004065   -0.00016677    0.01339817
     atom   22 type  1   force =    -0.00037023    0.00075343   -0.01424620
     atom   23 type  1   force =    -0.00000559    0.00003722    0.01342601
     atom   24 type  1   force =    -0.00023630   -0.00001500   -0.01341850
     atom   25 type  1   force =     0.00031587   -0.00009340    0.01332960
     atom   26 type  1   force =    -0.00026704    0.00015277   -0.01326213
     atom   27 type  1   force =    -0.00028125    0.00023754    0.01308851
     atom   28 type  1   force =     0.00087786   -0.00014186   -0.01396910
     atom   29 type  1   force =    -0.00002271   -0.00070689    0.01355031
     atom   30 type  1   force =     0.00039115    0.00080211   -0.01420894
     atom   31 type  1   force =     0.00012069    0.00033112    0.01352581
     atom   32 type  1   force =     0.00001309   -0.00025205   -0.01267131
     atom   33 type  2   force =     0.00019725    0.00708324   -0.01137528
     atom   34 type  2   force =     0.00012877   -0.00455014    0.00046595
     atom   35 type  2   force =     0.00132379   -0.01197383    0.01806550
     atom   36 type  3   force =     0.00371601    0.00123386   -0.00078364
     atom   37 type  3   force =     0.00256609    0.00257835    0.00161835
     atom   38 type  3   force =     0.00028295   -0.01068341    0.00964941
     atom   39 type  3   force =     0.00015112   -0.00165007    0.00127650
     atom   40 type  3   force =    -0.00138623    0.01336685   -0.01820597
     atom   41 type  4   force =    -0.00137801    0.00067764   -0.00075931
     atom   42 type  4   force =    -0.00236810   -0.00084492    0.00167640
     atom   43 type  4   force =    -0.00126731   -0.00053120    0.00092448
     atom   44 type  4   force =    -0.00148041    0.00026805   -0.00083916
     atom   45 type  4   force =    -0.00049015   -0.00021891   -0.00003193
     atom   46 type  4   force =     0.00003592   -0.00010225   -0.00035021
     atom   47 type  4   force =     0.00009397    0.00295685   -0.00037248
     atom   48 type  4   force =    -0.00004696    0.00318031   -0.00078287

     Total force =     0.085132     Total SCF correction =     0.001057
 !ASE

     Writing output data file calc.save
     Check: negative starting charge=   -0.060594
     NEW-OLD atomic charge density approx. for the potential

     Check: negative/imaginary core charge=   -0.000001    0.000000
     Check: negative starting charge=   -0.060587

     negative rho (up, down):  7.038E-02 0.000E+00

     total cpu time spent up to now is    62496.1 secs

     per-process dynamical memory:   622.4 Mb

     Self-consistent Calculation

     iteration #  1     ecut=    40.42 Ry     beta=0.15
     Davidson diagonalization with overlap
     c_bands:  5 eigenvalues not converged
     c_bands:  1 eigenvalues not converged
     c_bands:  1 eigenvalues not converged
     c_bands:  1 eigenvalues not converged
     c_bands:  1 eigenvalues not converged
     ethr =  1.11E-10,  avg # of iterations = 16.0

     negative rho (up, down):  7.045E-02 0.000E+00

     total cpu time spent up to now is    64528.1 secs

     total energy              =  -15206.50628985 Ry
     Harris-Foulkes estimate   =  -15206.50629938 Ry
     estimated scf accuracy    <       0.00011528 Ry

     iteration #  2     ecut=    40.42 Ry     beta=0.15
     Davidson diagonalization with overlap
     ethr =  1.95E-08,  avg # of iterations =  1.0

     negative rho (up, down):  7.064E-02 0.000E+00

     total cpu time spent up to now is    65328.0 secs

     total energy              =  -15206.50626828 Ry
     Harris-Foulkes estimate   =  -15206.50629026 Ry
     estimated scf accuracy    <       0.00008037 Ry

     iteration #  3     ecut=    40.42 Ry     beta=0.15
     Davidson diagonalization with overlap
     ethr =  1.36E-08,  avg # of iterations =  2.0

     negative rho (up, down):  7.083E-02 0.000E+00

     total cpu time spent up to now is    66177.5 secs

     total energy              =  -15206.50626065 Ry
     Harris-Foulkes estimate   =  -15206.50627139 Ry
     estimated scf accuracy    <       0.00002763 Ry

     iteration #  4     ecut=    40.42 Ry     beta=0.15
     Davidson diagonalization with overlap
     ethr =  4.68E-09,  avg # of iterations =  3.0

     negative rho (up, down):  7.090E-02 0.000E+00

     total cpu time spent up to now is    67051.3 secs

     total energy              =  -15206.50626170 Ry
     Harris-Foulkes estimate   =  -15206.50626296 Ry
     estimated scf accuracy    <       0.00000512 Ry

     iteration #  5     ecut=    40.42 Ry     beta=0.15
     Davidson diagonalization with overlap
     c_bands:  1 eigenvalues not converged
     c_bands:  1 eigenvalues not converged
     c_bands:  2 eigenvalues not converged
     ethr =  8.68E-10,  avg # of iterations =  8.4

     negative rho (up, down):  7.087E-02 0.000E+00

     total cpu time spent up to now is    68048.5 secs

     total energy              =  -15206.50626151 Ry
     Harris-Foulkes estimate   =  -15206.50626206 Ry
     estimated scf accuracy    <       0.00000271 Ry

     iteration #  6     ecut=    40.42 Ry     beta=0.15
     Davidson diagonalization with overlap
     c_bands:  1 eigenvalues not converged
     c_bands:  1 eigenvalues not converged
     c_bands:  1 eigenvalues not converged
     c_bands:  1 eigenvalues not converged
     ethr =  4.59E-10,  avg # of iterations = 11.4

     negative rho (up, down):  7.083E-02 0.000E+00

     total cpu time spent up to now is    69110.7 secs

     total energy              =  -15206.50626140 Ry
     Harris-Foulkes estimate   =  -15206.50626170 Ry
     estimated scf accuracy    <       0.00000131 Ry

     iteration #  7     ecut=    40.42 Ry     beta=0.15
     Davidson diagonalization with overlap
     c_bands:  1 eigenvalues not converged
     c_bands:  2 eigenvalues not converged
     c_bands:  1 eigenvalues not converged
     c_bands:  1 eigenvalues not converged
     ethr =  2.22E-10,  avg # of iterations = 13.2

     negative rho (up, down):  7.082E-02 0.000E+00

     total cpu time spent up to now is    70266.2 secs

     total energy              =  -15206.50626150 Ry
     Harris-Foulkes estimate   =  -15206.50626158 Ry
     estimated scf accuracy    <       0.00000245 Ry

     iteration #  8     ecut=    40.42 Ry     beta=0.15
     Davidson diagonalization with overlap
     c_bands:  1 eigenvalues not converged
     ethr =  2.22E-10,  avg # of iterations =  3.1

     negative rho (up, down):  7.077E-02 0.000E+00

     total cpu time spent up to now is    71100.2 secs

     total energy              =  -15206.50626138 Ry
     Harris-Foulkes estimate   =  -15206.50626154 Ry
     estimated scf accuracy    <       0.00000113 Ry

     iteration #  9     ecut=    40.42 Ry     beta=0.15
     Davidson diagonalization with overlap
     ethr =  1.91E-10,  avg # of iterations = 10.0

     negative rho (up, down):  7.077E-02 0.000E+00

     total cpu time spent up to now is    72247.9 secs

     total energy              =  -15206.50626160 Ry
     Harris-Foulkes estimate   =  -15206.50626164 Ry
     estimated scf accuracy    <       0.00000397 Ry

     iteration # 10     ecut=    40.42 Ry     beta=0.15
     Davidson diagonalization with overlap
     ethr =  1.91E-10,  avg # of iterations =  1.0

     negative rho (up, down):  7.074E-02 0.000E+00

     total cpu time spent up to now is    73055.5 secs

     total energy              =  -15206.50626135 Ry
     Harris-Foulkes estimate   =  -15206.50626160 Ry
     estimated scf accuracy    <       0.00000320 Ry

     iteration # 11     ecut=    40.42 Ry     beta=0.15
     Davidson diagonalization with overlap
     c_bands:  1 eigenvalues not converged
     ethr =  1.91E-10,  avg # of iterations = 13.7

     negative rho (up, down):  7.074E-02 0.000E+00

     total cpu time spent up to now is    74217.9 secs

     total energy              =  -15206.50626149 Ry
     Harris-Foulkes estimate   =  -15206.50626151 Ry
     estimated scf accuracy    <       0.00000097 Ry

     iteration # 12     ecut=    40.42 Ry     beta=0.15
     Davidson diagonalization with overlap
     c_bands:  1 eigenvalues not converged
     ethr =  1.64E-10,  avg # of iterations =  2.9

     negative rho (up, down):  7.071E-02 0.000E+00

     total cpu time spent up to now is    75044.3 secs

     total energy              =  -15206.50626141 Ry
     Harris-Foulkes estimate   =  -15206.50626150 Ry
     estimated scf accuracy    <       0.00000068 Ry

     iteration # 13     ecut=    40.42 Ry     beta=0.15
     Davidson diagonalization with overlap
     ethr =  1.14E-10,  avg # of iterations =  8.7

     negative rho (up, down):  7.070E-02 0.000E+00

     total cpu time spent up to now is    76130.8 secs

     total energy              =  -15206.50626150 Ry
     Harris-Foulkes estimate   =  -15206.50626158 Ry
     estimated scf accuracy    <       0.00000233 Ry

     iteration # 14     ecut=    40.42 Ry     beta=0.15
     Davidson diagonalization with overlap
     ethr =  1.14E-10,  avg # of iterations =  1.0

     negative rho (up, down):  7.066E-02 0.000E+00

     total cpu time spent up to now is    76939.1 secs

     total energy              =  -15206.50626138 Ry
     Harris-Foulkes estimate   =  -15206.50626151 Ry
     estimated scf accuracy    <       0.00000163 Ry

     iteration # 15     ecut=    40.42 Ry     beta=0.15
     Davidson diagonalization with overlap
     c_bands:  2 eigenvalues not converged
     c_bands:  1 eigenvalues not converged
     c_bands:  1 eigenvalues not converged
     ethr =  1.14E-10,  avg # of iterations = 12.9

     negative rho (up, down):  7.067E-02 0.000E+00

     total cpu time spent up to now is    78037.6 secs

     total energy              =  -15206.50626149 Ry
     Harris-Foulkes estimate   =  -15206.50626149 Ry
     estimated scf accuracy    <       0.00000049 Ry

     iteration # 16     ecut=    40.42 Ry     beta=0.15
     Davidson diagonalization with overlap
     c_bands:  1 eigenvalues not converged
     ethr =  8.37E-11,  avg # of iterations =  3.3

     negative rho (up, down):  7.065E-02 0.000E+00

     total cpu time spent up to now is    78880.8 secs

     total energy              =  -15206.50626152 Ry
     Harris-Foulkes estimate   =  -15206.50626150 Ry
     estimated scf accuracy    <       0.00000046 Ry

     iteration # 17     ecut=    40.42 Ry     beta=0.15
     Davidson diagonalization with overlap
     c_bands:  1 eigenvalues not converged
     ethr =  7.88E-11,  avg # of iterations =  2.9

     negative rho (up, down):  7.065E-02 0.000E+00

     total cpu time spent up to now is    79713.0 secs

     total energy              =  -15206.50626152 Ry
     Harris-Foulkes estimate   =  -15206.50626153 Ry
     estimated scf accuracy    <       0.00000061 Ry

     iteration # 18     ecut=    40.42 Ry     beta=0.15
     Davidson diagonalization with overlap
     c_bands:  1 eigenvalues not converged
     ethr =  7.88E-11,  avg # of iterations =  2.9

     negative rho (up, down):  7.066E-02 0.000E+00

     total cpu time spent up to now is    80558.8 secs

     total energy              =  -15206.50626152 Ry
     Harris-Foulkes estimate   =  -15206.50626152 Ry
     estimated scf accuracy    <       0.00000055 Ry

     iteration # 19     ecut=    40.42 Ry     beta=0.15
     Davidson diagonalization with overlap
     c_bands:  1 eigenvalues not converged
     ethr =  7.88E-11,  avg # of iterations =  2.9

     negative rho (up, down):  7.065E-02 0.000E+00

     total cpu time spent up to now is    81402.8 secs

     total energy              =  -15206.50626154 Ry
     Harris-Foulkes estimate   =  -15206.50626152 Ry
     estimated scf accuracy    <       0.00000063 Ry

     iteration # 20     ecut=    40.42 Ry     beta=0.15
     Davidson diagonalization with overlap
     c_bands:  1 eigenvalues not converged
     ethr =  7.88E-11,  avg # of iterations =  2.9

     negative rho (up, down):  7.065E-02 0.000E+00

     total cpu time spent up to now is    82247.8 secs

     total energy              =  -15206.50626154 Ry
     Harris-Foulkes estimate   =  -15206.50626155 Ry
     estimated scf accuracy    <       0.00000087 Ry

     iteration # 21     ecut=    40.42 Ry     beta=0.15
     Davidson diagonalization with overlap
     c_bands:  1 eigenvalues not converged
     ethr =  7.88E-11,  avg # of iterations =  2.9

     negative rho (up, down):  7.063E-02 0.000E+00

     total cpu time spent up to now is    83097.2 secs

     total energy              =  -15206.50626160 Ry
     Harris-Foulkes estimate   =  -15206.50626154 Ry
     estimated scf accuracy    <       0.00000079 Ry

     iteration # 22     ecut=    40.42 Ry     beta=0.15
     Davidson diagonalization with overlap
     c_bands:  2 eigenvalues not converged
     c_bands:  2 eigenvalues not converged
     ethr =  7.88E-11,  avg # of iterations =  4.8

     negative rho (up, down):  7.064E-02 0.000E+00

     total cpu time spent up to now is    83983.7 secs

     total energy              =  -15206.50626153 Ry
     Harris-Foulkes estimate   =  -15206.50626165 Ry
     estimated scf accuracy    <       0.00000233 Ry

     iteration # 23     ecut=    40.42 Ry     beta=0.15
     Davidson diagonalization with overlap
     c_bands:  1 eigenvalues not converged
     ethr =  7.88E-11,  avg # of iterations =  3.5

     negative rho (up, down):  7.066E-02 0.000E+00

     total cpu time spent up to now is    84837.9 secs

     total energy              =  -15206.50626124 Ry
     Harris-Foulkes estimate   =  -15206.50626155 Ry
     estimated scf accuracy    <       0.00000139 Ry

     iteration # 24     ecut=    40.42 Ry     beta=0.15
     Davidson diagonalization with overlap
     ethr =  7.88E-11,  avg # of iterations =  7.5

     negative rho (up, down):  7.063E-02 0.000E+00

     total cpu time spent up to now is    86252.7 secs

     total energy              =  -15206.50626108 Ry
     Harris-Foulkes estimate   =  -15206.50626176 Ry
     estimated scf accuracy    <       0.00000541 Ry

     iteration # 25     ecut=    40.42 Ry     beta=0.15
     Davidson diagonalization with overlap
