  python dir          : /gpfs/pace1/project/chbe-medford/medford-share/gits/frozen/ben_espresso_8_24_2017/espresso
  espresso dir        : /nv/hp22/amedford6/medford-shared/builds/espresso/5.1.r11289-pybeef/intel-16.0+mvapich2-2.2+mkl-11.3/espresso-5.1.r11289-pybeef/bin
  pseudo dir          : /gpfs/pace1/project/chbe-medford/medford-share/data/pseudos/SSSP_eff_PBE
  ase-espresso py git : GITVERSION



     Program PWSCF v.5.1rc2 starts on  9Feb2019 at 22:47:19 

     This program is part of the open-source Quantum ESPRESSO suite
     for quantum simulation of materials; please cite
         "P. Giannozzi et al., J. Phys.:Condens. Matter 21 395502 (2009);
          URL http://www.quantum-espresso.org", 
     in publications or presentations arising from this work. More details at
     http://www.quantum-espresso.org/quote

     Parallel version (MPI), running on    12 processors
     R & G space division:  proc/nbgrp/npool/nimage =      12
     Reading input from pw.inp
     Message from routine read_cards :
     DEPRECATED: no units specified in CELL_PARAMETERS card

     Current dimensions of program PWSCF are:
     Max number of different atomic species (ntypx) = 10
     Max number of k-points (npk) =  40000
     Max angular momentum in pseudopotentials (lmaxx) =  3

     IMPORTANT: XC functional enforced from input :
     Exchange-correlation      = PBE ( 1  4  3  4 0)
     Any further DFT definition will be discarded
     Please, verify this is what you really want


     Subspace diagonalization in iterative solution of the eigenvalue problem:
     a serial algorithm will be used

 
     Parallelization info
     --------------------
     sticks:   dense  smooth     PW     G-vecs:    dense   smooth      PW
     Min         902     442    116               198592    67880    9174
     Max         903     443    117               198601    67900    9185
     Sum       10831    5305   1393              2383153   814635  110123
 


     bravais-lattice index     =            0
     lattice parameter (alat)  =       1.8897  a.u.
     unit-cell volume          =   23466.3494 (a.u.)^3
     number of atoms/cell      =           47
     number of atomic types    =            4
     number of electrons       =       658.00
     number of Kohn-Sham states=          339
     kinetic-energy cutoff     =      40.4243  Ry
     charge density cutoff     =     330.7439  Ry
     convergence threshold     =      7.3E-07
     mixing beta               =       0.2000
     number of iterations used =            8  local-TF  mixing
     Exchange-correlation      = PBE ( 1  4  3  4 0)
     nstep                     =           50


     celldm(1)=   1.889726  celldm(2)=   0.000000  celldm(3)=   0.000000
     celldm(4)=   0.000000  celldm(5)=   0.000000  celldm(6)=   0.000000

     crystal axes: (cart. coord. in units of alat)
               a(1) = (  11.534892   0.000000   0.000000 )  
               a(2) = (  -5.767446   9.989509   0.000000 )  
               a(3) = (   0.000000   0.000000  30.178057 )  

     reciprocal axes: (cart. coord. in units 2 pi/alat)
               b(1) = (  0.086693  0.050053  0.000000 )  
               b(2) = (  0.000000  0.100105  0.000000 )  
               b(3) = (  0.000000  0.000000  0.033137 )  


     PseudoPot. # 1 for Au read from file:
     /gpfs/pace1/project/chbe-medford/medford-share/data/pseudos/SSSP_eff_PBE/Au.UPF
     MD5 check sum: 1009843a674e36925f098327e430af60
     Pseudo is Norm-conserving, Zval = 19.0
     Generated using ONCVPSP code by D. R. Hamann
     Using radial grid of  602 points,  8 beta functions with: 
                l(1) =   0
                l(2) =   0
                l(3) =   1
                l(4) =   1
                l(5) =   2
                l(6) =   2
                l(7) =   3
                l(8) =   3

     PseudoPot. # 2 for O  read from file:
     /gpfs/pace1/project/chbe-medford/medford-share/data/pseudos/SSSP_eff_PBE/O.UPF
     MD5 check sum: 734c27235a0248c51dbae37a1fbe46ec
     Pseudo is Ultrasoft + core correction, Zval =  6.0
     Generated by new atomic code, or converted to UPF format
     Using radial grid of  737 points,  5 beta functions with: 
                l(1) =   0
                l(2) =   0
                l(3) =   1
                l(4) =   1
                l(5) =   2
     Q(r) pseudized with  8 coefficients,  rinner =    0.900   0.900   0.900
                                                       0.900   0.900

     PseudoPot. # 3 for C  read from file:
     /gpfs/pace1/project/chbe-medford/medford-share/data/pseudos/SSSP_eff_PBE/C.UPF
     MD5 check sum: d1aef80898a10debaa0f26306b886e00
     Pseudo is Ultrasoft + core correction, Zval =  4.0
     Generated by new atomic code, or converted to UPF format
     Using radial grid of  721 points,  4 beta functions with: 
                l(1) =   0
                l(2) =   0
                l(3) =   1
                l(4) =   1
     Q(r) pseudized with  8 coefficients,  rinner =    1.100   1.100   1.100


     PseudoPot. # 4 for  H read from file:
     /gpfs/pace1/project/chbe-medford/medford-share/data/pseudos/SSSP_eff_PBE/H.UPF
     MD5 check sum: 36633979392af7100e6f6632747262d3
     Pseudo is Ultrasoft, Zval =  1.0
     Generated using "atomic" code by A. Dal Corso  v.5.0.99 svn rev. 10869
     Using radial grid of  929 points,  2 beta functions with: 
                l(1) =   0
                l(2) =   0
     Q(r) pseudized with 0 coefficients 


     atomic species   valence    mass     pseudopotential
        Au1           19.00   196.96650     Au( 1.00)
        O1             6.00    15.99940     O ( 1.00)
        C1             4.00    12.01100     C ( 1.00)
        H1             1.00     1.00794      H( 1.00)

     No symmetry found



   Cartesian axes

     site n.     atom                  positions (alat units)
         1           Au1 tau(   1) = (   0.0000000   0.0000000  10.0000000  )
         2           Au1 tau(   2) = (   1.4418614   0.8324591  12.3545499  )
         3           Au1 tau(   3) = (  -1.4418614   2.4973773  10.0000000  )
         4           Au1 tau(   4) = (   0.0000000   3.3298364  12.3545499  )
         5           Au1 tau(   5) = (  -2.8837229   4.9947545  10.0000000  )
         6           Au1 tau(   6) = (  -1.4418614   5.8272136  12.3545499  )
         7           Au1 tau(   7) = (  -4.3255843   7.4921318  10.0000000  )
         8           Au1 tau(   8) = (  -2.8837229   8.3245909  12.3545499  )
         9           Au1 tau(   9) = (   2.8837229   0.0000000  10.0000000  )
        10           Au1 tau(  10) = (   4.3255843   0.8324591  12.3545499  )
        11           Au1 tau(  11) = (   1.4418614   2.4973773  10.0000000  )
        12           Au1 tau(  12) = (   2.8837229   3.3298364  12.3545499  )
        13           Au1 tau(  13) = (   0.0000000   4.9947545  10.0000000  )
        14           Au1 tau(  14) = (   1.4418614   5.8272136  12.3545499  )
        15           Au1 tau(  15) = (  -1.4418614   7.4921318  10.0000000  )
        16           Au1 tau(  16) = (   0.0000000   8.3245909  12.3545499  )
        17           Au1 tau(  17) = (   5.7674458   0.0000000  10.0000000  )
        18           Au1 tau(  18) = (   7.2093072   0.8324591  12.3545499  )
        19           Au1 tau(  19) = (   4.3255843   2.4973773  10.0000000  )
        20           Au1 tau(  20) = (   5.7674458   3.3298364  12.3545499  )
        21           Au1 tau(  21) = (   2.8837229   4.9947545  10.0000000  )
        22           Au1 tau(  22) = (   4.3255843   5.8272136  12.3545499  )
        23           Au1 tau(  23) = (   1.4418614   7.4921318  10.0000000  )
        24           Au1 tau(  24) = (   2.8837229   8.3245909  12.3545499  )
        25           Au1 tau(  25) = (   8.6511686   0.0000000  10.0000000  )
        26           Au1 tau(  26) = (  10.0930301   0.8324591  12.3545499  )
        27           Au1 tau(  27) = (   7.2093072   2.4973773  10.0000000  )
        28           Au1 tau(  28) = (   8.6511686   3.3298364  12.3545499  )
        29           Au1 tau(  29) = (   5.7674458   4.9947545  10.0000000  )
        30           Au1 tau(  30) = (   7.2093072   5.8272136  12.3545499  )
        31           Au1 tau(  31) = (   4.3255843   7.4921318  10.0000000  )
        32           Au1 tau(  32) = (   5.7674458   8.3245909  12.3545499  )
        33           O1  tau(  33) = (   2.8840000   4.9950000  14.8545499  )
        34           O1  tau(  34) = (   4.8970351   6.2745000  18.4298289  )
        35           O1  tau(  35) = (   2.0632300   4.6421000  16.9467345  )
        36           O1  tau(  36) = (   4.9632155   4.8279000  20.1780568  )
        37           C1  tau(  37) = (   4.4526743   4.3781000  16.4933734  )
        38           C1  tau(  38) = (   4.6202348   4.0026000  17.9391968  )
        39           C1  tau(  39) = (   3.0044576   4.6687000  16.1679885  )
        40           C1  tau(  40) = (   4.8420857   5.0396000  18.9810537  )
        41           C1  tau(  41) = (   4.5481491   2.7298000  18.3579407  )
        42           H1  tau(  42) = (   5.0662465   5.2463000  16.2323117  )
        43           H1  tau(  43) = (   4.7767627   3.5470000  15.8543111  )
        44           H1  tau(  44) = (   4.3740862   1.9232000  17.6524549  )
        45           H1  tau(  45) = (   4.6565197   2.4476000  19.3998440  )
        46           H1  tau(  46) = (   1.9555546   5.1987000  14.6124353  )
        47           H1  tau(  47) = (   5.0439563   6.9717000  19.1041040  )

     number of k points=     4  Fermi-Dirac smearing, width (Ry)=  0.0073
                       cart. coord. in units 2pi/alat
        k(    1) = (   0.0000000   0.0000000   0.0000000), wk =   0.5000000
        k(    2) = (   0.0000000  -0.0500525   0.0000000), wk =   0.5000000
        k(    3) = (   0.0433467  -0.0250263   0.0000000), wk =   0.5000000
        k(    4) = (  -0.0433467  -0.0250263   0.0000000), wk =   0.5000000

     Dense  grid:  2383153 G-vectors     FFT dimensions: ( 128, 128, 360)

     Smooth grid:   814635 G-vectors     FFT dimensions: (  90,  90, 240)

     Largest allocated arrays     est. size (Mb)     dimensions
        Kohn-Sham Wavefunctions        44.08 Mb     (    8521,  339)
        NL pseudopotentials           146.66 Mb     (    8521, 1128)
        Each V/rho on FFT grid          7.50 Mb     (  491520)
        Each G-vector array             1.52 Mb     (  198594)
        G-vector shells                 0.48 Mb     (   62916)
     Largest temporary arrays     est. size (Mb)     dimensions
        Auxiliary wavefunctions       176.31 Mb     (    8521, 1356)
        Each subspace H/S matrix       28.06 Mb     (    1356, 1356)
        Each <psi_i|beta_j> matrix      5.83 Mb     (    1128,  339)
        Arrays for rho mixing          60.00 Mb     (  491520,    8)

     Initial potential from superposition of free atoms
     Check: negative starting charge=   -0.002317

     starting charge  657.28107, renormalised to  658.00000

     negative rho (up, down):  2.320E-03 0.000E+00
     Starting wfc are   42 randomized atomic wfcs +  297 random wfc

     total cpu time spent up to now is       41.1 secs

     per-process dynamical memory:   537.4 Mb

     Self-consistent Calculation

     iteration #  1     ecut=    40.42 Ry     beta=0.20
     Davidson diagonalization with overlap
     ethr =  1.00E-02,  avg # of iterations = 12.0

     Threshold (ethr) on eigenvalues was too large:
     Diagonalizing with lowered threshold

     Davidson diagonalization with overlap
     ethr =  6.22E-04,  avg # of iterations =  1.0

     negative rho (up, down):  7.573E-05 0.000E+00

     total cpu time spent up to now is      491.3 secs

     total energy              =   -8984.50892660 Ry
     Harris-Foulkes estimate   =   -8984.83908877 Ry
     estimated scf accuracy    <       4.09191158 Ry

     iteration #  2     ecut=    40.42 Ry     beta=0.20
     Davidson diagonalization with overlap
     ethr =  6.22E-04,  avg # of iterations =  1.8

     negative rho (up, down):  9.983E-06 0.000E+00

     total cpu time spent up to now is      586.8 secs

     total energy              =   -8984.35815009 Ry
     Harris-Foulkes estimate   =   -8984.56621776 Ry
     estimated scf accuracy    <       1.34238296 Ry

     iteration #  3     ecut=    40.42 Ry     beta=0.20
     Davidson diagonalization with overlap
     ethr =  2.04E-04,  avg # of iterations =  3.8

     negative rho (up, down):  1.646E-05 0.000E+00

     total cpu time spent up to now is      686.0 secs

     total energy              =   -8984.15225454 Ry
     Harris-Foulkes estimate   =   -8984.38480233 Ry
     estimated scf accuracy    <       0.68353509 Ry

     iteration #  4     ecut=    40.42 Ry     beta=0.20
     Davidson diagonalization with overlap
     ethr =  1.04E-04,  avg # of iterations =  3.0

     negative rho (up, down):  1.880E-05 0.000E+00

     total cpu time spent up to now is      784.5 secs

     total energy              =   -8984.16234142 Ry
     Harris-Foulkes estimate   =   -8984.20984553 Ry
     estimated scf accuracy    <       0.16024705 Ry

     iteration #  5     ecut=    40.42 Ry     beta=0.20
     Davidson diagonalization with overlap
     ethr =  2.44E-05,  avg # of iterations =  2.8

     negative rho (up, down):  1.197E-05 0.000E+00

     total cpu time spent up to now is      885.1 secs

     total energy              =   -8984.15639564 Ry
     Harris-Foulkes estimate   =   -8984.17139170 Ry
     estimated scf accuracy    <       0.06009860 Ry

     iteration #  6     ecut=    40.42 Ry     beta=0.20
     Davidson diagonalization with overlap
     ethr =  9.13E-06,  avg # of iterations =  4.8

     negative rho (up, down):  7.613E-06 0.000E+00

     total cpu time spent up to now is      990.7 secs

     total energy              =   -8984.15417941 Ry
     Harris-Foulkes estimate   =   -8984.16134214 Ry
     estimated scf accuracy    <       0.03101280 Ry

     iteration #  7     ecut=    40.42 Ry     beta=0.20
     Davidson diagonalization with overlap
     ethr =  4.71E-06,  avg # of iterations =  7.8

     negative rho (up, down):  1.961E-05 0.000E+00

     total cpu time spent up to now is     1100.9 secs

     total energy              =   -8984.15353698 Ry
     Harris-Foulkes estimate   =   -8984.15599571 Ry
     estimated scf accuracy    <       0.01750545 Ry

     iteration #  8     ecut=    40.42 Ry     beta=0.20
     Davidson diagonalization with overlap
     ethr =  2.66E-06,  avg # of iterations =  2.0

     negative rho (up, down):  7.559E-04 0.000E+00

     total cpu time spent up to now is     1193.0 secs

     total energy              =   -8984.15115983 Ry
     Harris-Foulkes estimate   =   -8984.15368642 Ry
     estimated scf accuracy    <       0.01321379 Ry

     iteration #  9     ecut=    40.42 Ry     beta=0.20
     Davidson diagonalization with overlap
     ethr =  2.01E-06,  avg # of iterations =  6.8

     negative rho (up, down):  1.198E-03 0.000E+00

     total cpu time spent up to now is     1298.3 secs

     total energy              =   -8984.15132747 Ry
     Harris-Foulkes estimate   =   -8984.15148012 Ry
     estimated scf accuracy    <       0.00764966 Ry

     iteration # 10     ecut=    40.42 Ry     beta=0.20
     Davidson diagonalization with overlap
     ethr =  1.16E-06,  avg # of iterations =  2.2

     negative rho (up, down):  1.745E-02 0.000E+00

     total cpu time spent up to now is     1393.4 secs

     total energy              =   -8984.15091123 Ry
     Harris-Foulkes estimate   =   -8984.15143252 Ry
     estimated scf accuracy    <       0.00614977 Ry

     iteration # 11     ecut=    40.42 Ry     beta=0.20
     Davidson diagonalization with overlap
     ethr =  9.35E-07,  avg # of iterations =  3.0

     negative rho (up, down):  5.593E-02 0.000E+00

     total cpu time spent up to now is     1493.3 secs

     total energy              =   -8984.15090490 Ry
     Harris-Foulkes estimate   =   -8984.15117542 Ry
     estimated scf accuracy    <       0.00430161 Ry

     iteration # 12     ecut=    40.42 Ry     beta=0.20
     Davidson diagonalization with overlap
     ethr =  6.54E-07,  avg # of iterations =  3.0

     negative rho (up, down):  4.967E-02 0.000E+00

     total cpu time spent up to now is     1593.2 secs

     total energy              =   -8984.15042728 Ry
     Harris-Foulkes estimate   =   -8984.15112888 Ry
     estimated scf accuracy    <       0.00224172 Ry

     iteration # 13     ecut=    40.42 Ry     beta=0.20
     Davidson diagonalization with overlap
     ethr =  3.41E-07,  avg # of iterations =  2.8

     negative rho (up, down):  4.898E-02 0.000E+00

     total cpu time spent up to now is     1696.2 secs

     total energy              =   -8984.15050589 Ry
     Harris-Foulkes estimate   =   -8984.15057154 Ry
     estimated scf accuracy    <       0.00094719 Ry

     iteration # 14     ecut=    40.42 Ry     beta=0.20
     Davidson diagonalization with overlap
     ethr =  1.44E-07,  avg # of iterations =  1.0

     negative rho (up, down):  2.913E-02 0.000E+00

     total cpu time spent up to now is     1787.9 secs

     total energy              =   -8984.14981696 Ry
     Harris-Foulkes estimate   =   -8984.15051238 Ry
     estimated scf accuracy    <       0.00079573 Ry

     iteration # 15     ecut=    40.42 Ry     beta=0.20
     Davidson diagonalization with overlap
     ethr =  1.21E-07,  avg # of iterations =  3.8

     negative rho (up, down):  2.496E-02 0.000E+00

     total cpu time spent up to now is     1892.1 secs

     total energy              =   -8984.14982479 Ry
     Harris-Foulkes estimate   =   -8984.14989896 Ry
     estimated scf accuracy    <       0.00043855 Ry

     iteration # 16     ecut=    40.42 Ry     beta=0.20
     Davidson diagonalization with overlap
     ethr =  6.66E-08,  avg # of iterations =  4.0

     negative rho (up, down):  2.086E-02 0.000E+00

     total cpu time spent up to now is     1992.0 secs

     total energy              =   -8984.14962167 Ry
     Harris-Foulkes estimate   =   -8984.14983946 Ry
     estimated scf accuracy    <       0.00032670 Ry

     iteration # 17     ecut=    40.42 Ry     beta=0.20
     Davidson diagonalization with overlap
     ethr =  4.96E-08,  avg # of iterations =  3.0

     negative rho (up, down):  2.057E-02 0.000E+00

     total cpu time spent up to now is     2090.1 secs

     total energy              =   -8984.14958967 Ry
     Harris-Foulkes estimate   =   -8984.14962963 Ry
     estimated scf accuracy    <       0.00021725 Ry

     iteration # 18     ecut=    40.42 Ry     beta=0.20
     Davidson diagonalization with overlap
     ethr =  3.30E-08,  avg # of iterations =  2.2

     negative rho (up, down):  1.583E-02 0.000E+00

     total cpu time spent up to now is     2182.4 secs

     total energy              =   -8984.14947640 Ry
     Harris-Foulkes estimate   =   -8984.14959379 Ry
     estimated scf accuracy    <       0.00017692 Ry

     iteration # 19     ecut=    40.42 Ry     beta=0.20
     Davidson diagonalization with overlap
     ethr =  2.69E-08,  avg # of iterations =  3.0

     negative rho (up, down):  1.683E-02 0.000E+00

     total cpu time spent up to now is     2280.7 secs

     total energy              =   -8984.14947603 Ry
     Harris-Foulkes estimate   =   -8984.14948493 Ry
     estimated scf accuracy    <       0.00009821 Ry

     iteration # 20     ecut=    40.42 Ry     beta=0.20
     Davidson diagonalization with overlap
     ethr =  1.49E-08,  avg # of iterations =  2.0

     negative rho (up, down):  1.424E-02 0.000E+00

     total cpu time spent up to now is     2372.8 secs

     total energy              =   -8984.14943479 Ry
     Harris-Foulkes estimate   =   -8984.14947720 Ry
     estimated scf accuracy    <       0.00008083 Ry

     iteration # 21     ecut=    40.42 Ry     beta=0.20
     Davidson diagonalization with overlap
     ethr =  1.23E-08,  avg # of iterations =  4.0

     negative rho (up, down):  1.287E-02 0.000E+00

     total cpu time spent up to now is     2480.3 secs

     total energy              =   -8984.14941590 Ry
     Harris-Foulkes estimate   =   -8984.14943893 Ry
     estimated scf accuracy    <       0.00004987 Ry

     iteration # 22     ecut=    40.42 Ry     beta=0.20
     Davidson diagonalization with overlap
     ethr =  7.58E-09,  avg # of iterations =  3.2

     negative rho (up, down):  7.077E-03 0.000E+00

     total cpu time spent up to now is     2578.1 secs

     total energy              =   -8984.14934916 Ry
     Harris-Foulkes estimate   =   -8984.14941668 Ry
     estimated scf accuracy    <       0.00003772 Ry

     iteration # 23     ecut=    40.42 Ry     beta=0.20
     Davidson diagonalization with overlap
     ethr =  5.73E-09,  avg # of iterations =  3.5

     negative rho (up, down):  6.684E-03 0.000E+00

     total cpu time spent up to now is     2676.3 secs

     total energy              =   -8984.14934805 Ry
     Harris-Foulkes estimate   =   -8984.14935151 Ry
     estimated scf accuracy    <       0.00001234 Ry

     iteration # 24     ecut=    40.42 Ry     beta=0.20
     Davidson diagonalization with overlap
     ethr =  1.88E-09,  avg # of iterations =  1.0

     negative rho (up, down):  4.473E-03 0.000E+00

     total cpu time spent up to now is     2770.5 secs

     total energy              =   -8984.14933536 Ry
     Harris-Foulkes estimate   =   -8984.14934813 Ry
     estimated scf accuracy    <       0.00000989 Ry

     iteration # 25     ecut=    40.42 Ry     beta=0.20
     Davidson diagonalization with overlap
     ethr =  1.50E-09,  avg # of iterations =  3.2

     negative rho (up, down):  4.034E-03 0.000E+00

     total cpu time spent up to now is     2873.7 secs

     total energy              =   -8984.14933645 Ry
     Harris-Foulkes estimate   =   -8984.14933609 Ry
     estimated scf accuracy    <       0.00000240 Ry

     iteration # 26     ecut=    40.42 Ry     beta=0.20
     Davidson diagonalization with overlap
     ethr =  3.65E-10,  avg # of iterations =  3.0

     negative rho (up, down):  3.899E-03 0.000E+00

     total cpu time spent up to now is     2975.0 secs

     total energy              =   -8984.14933662 Ry
     Harris-Foulkes estimate   =   -8984.14933651 Ry
     estimated scf accuracy    <       0.00000164 Ry

     iteration # 27     ecut=    40.42 Ry     beta=0.20
     Davidson diagonalization with overlap
     ethr =  2.50E-10,  avg # of iterations =  3.0

     negative rho (up, down):  3.912E-03 0.000E+00

     total cpu time spent up to now is     3064.8 secs

     End of self-consistent calculation

          k = 0.0000 0.0000 0.0000 (101779 PWs)   bands (ev):

  -106.5330-106.4667-106.4577-106.4548-106.4512-106.4489-106.4484-106.4475
  -106.4463-106.4457-106.4443-106.4438-106.4436-106.4430-106.4426-106.4417
  -106.4417-106.4409-106.4407-106.4402-106.4401-106.4392-106.4390-106.4389
  -106.4382-106.4379-106.4374-106.4369-106.4363-106.4350-106.4348-106.4322
   -57.9192 -57.9164 -57.8979 -57.8882 -57.8857 -57.8825 -57.8749 -57.8729
   -57.8645 -57.8633 -57.8618 -57.8608 -57.8586 -57.8583 -57.8554 -57.8548
   -57.8535 -57.8527 -57.8295 -57.8278 -57.8146 -57.8139 -57.8130 -57.8113
   -57.8067 -57.8059 -57.8047 -57.8030 -57.8024 -57.8005 -57.7991 -57.7984
   -57.7977 -57.7969 -57.7965 -57.7954 -57.7865 -57.7857 -57.7842 -57.7830
   -57.7821 -57.7815 -57.7765 -57.7744 -57.7737 -57.7574 -57.7564 -57.7517
   -57.7509 -57.7494 -57.7492 -57.7486 -57.7476 -57.7461 -57.7408 -57.7332
   -57.7311 -57.7288 -57.7281 -57.7270 -57.7262 -57.7256 -57.7255 -57.7093
   -57.7091 -57.6886 -57.6715 -57.6656 -57.6640 -57.6638 -57.6623 -57.6533
   -57.6398 -57.6350 -57.6319 -57.6312 -57.6304 -57.6296 -57.6286 -57.6271
   -57.6153 -57.6004 -57.5961 -57.5952 -57.5947 -57.5939 -57.5928 -57.5920
   -57.5904 -57.5862 -57.5835 -57.5828 -57.5819 -57.5808 -57.5805 -57.5784
   -23.8481 -23.5070 -21.5145 -21.1123 -16.5923 -14.3687 -12.6902 -11.6947
    -9.8004  -9.5314  -8.4677  -8.3867  -8.0967  -8.0421  -7.9854  -7.9830
    -7.9812  -7.9801  -7.9790  -7.8920  -7.5776  -7.3972  -7.3940  -7.3907
    -7.3637  -7.3558  -7.3513  -7.2742  -6.9380  -6.9299  -6.9290  -6.9274
    -6.9264  -6.9254  -6.7962  -6.7438  -6.7412  -6.7304  -6.6980  -6.6971
    -6.6968  -6.6925  -6.6907  -6.6885  -6.3956  -6.3046  -6.2990  -6.2969
    -6.2935  -6.2928  -6.2904  -6.2884  -6.2843  -6.2841  -6.2824  -6.2818
    -6.2809  -6.0606  -6.0509  -6.0489  -6.0483  -6.0475  -6.0460  -5.9010
    -5.8339  -5.6379  -5.6320  -5.6128  -5.5250  -5.5126  -5.5114  -5.5098
    -5.5086  -5.5078  -5.4417  -5.4377  -5.3501  -5.3409  -5.3397  -5.3383
    -5.3368  -5.3333  -5.3306  -5.3155  -5.2584  -5.2524  -5.2507  -5.2492
    -5.2469  -5.2368  -5.2075  -5.2068  -5.1010  -5.0989  -5.0960  -5.0918
    -5.0909  -5.0903  -5.0417  -5.0394  -5.0371  -5.0353  -5.0345  -5.0134
    -4.8604  -4.8383  -4.8356  -4.8316  -4.8304  -4.8293  -4.8183  -4.8169
    -4.8136  -4.8121  -4.8109  -4.8107  -4.7872  -4.7421  -4.7411  -4.7382
    -4.5784  -4.5763  -4.5715  -4.5701  -4.5686  -4.5674  -4.2110  -4.2039
    -4.2001  -4.1994  -4.1981  -4.1961  -4.1413  -3.9619  -3.9380  -3.9358
    -3.9349  -3.9204  -3.9082  -3.8997  -3.8915  -3.8728  -3.8494  -3.8465
    -3.8274  -3.8253  -3.8232  -3.8225  -3.8207  -3.8201  -3.7500  -3.7434
    -3.7398  -3.7390  -3.7382  -3.7309  -3.6979  -3.5717  -3.5496  -3.5477
    -3.5469  -3.5415  -3.5284  -3.4487  -3.4416  -3.4164  -3.3677  -3.2823
    -3.2814  -3.2758  -3.1275  -3.1244  -3.1125  -3.1120  -3.1105  -3.1096
    -3.1088  -3.1082  -2.9323  -2.9191  -2.9166  -2.9153  -2.9143  -2.9054
    -2.7692  -2.7128  -2.7117  -2.7093  -2.6217  -2.5961  -2.5949  -2.5930
    -2.2782  -1.9908  -1.9689  -1.9656  -1.9646  -1.9493  -1.8615  -0.6953
    -0.6929  -0.6919  -0.6908  -0.6877  -0.6819  -0.4544  -0.4212  -0.4164
    -0.3763   0.4728   0.4755

          k = 0.0000-0.0501 0.0000 (101872 PWs)   bands (ev):

  -106.5330-106.4667-106.4576-106.4549-106.4508-106.4499-106.4484-106.4468
  -106.4462-106.4457-106.4440-106.4440-106.4433-106.4433-106.4427-106.4420
  -106.4415-106.4413-106.4407-106.4401-106.4395-106.4393-106.4390-106.4388
  -106.4384-106.4379-106.4375-106.4367-106.4364-106.4350-106.4347-106.4322
   -57.9147 -57.9123 -57.8856 -57.8827 -57.8820 -57.8748 -57.8718 -57.8713
   -57.8684 -57.8680 -57.8676 -57.8664 -57.8623 -57.8565 -57.8537 -57.8525
   -57.8502 -57.8469 -57.8452 -57.8438 -57.8371 -57.8353 -57.8340 -57.8321
   -57.8273 -57.8239 -57.8081 -57.8025 -57.8020 -57.7980 -57.7904 -57.7889
   -57.7855 -57.7849 -57.7829 -57.7806 -57.7751 -57.7738 -57.7706 -57.7689
   -57.7675 -57.7662 -57.7656 -57.7645 -57.7612 -57.7610 -57.7571 -57.7515
   -57.7506 -57.7499 -57.7485 -57.7474 -57.7462 -57.7444 -57.7433 -57.7427
   -57.7411 -57.7377 -57.7362 -57.7325 -57.7314 -57.7289 -57.7271 -57.7161
   -57.7136 -57.6836 -57.6780 -57.6722 -57.6653 -57.6551 -57.6505 -57.6497
   -57.6452 -57.6425 -57.6407 -57.6341 -57.6301 -57.6292 -57.6217 -57.6211
   -57.6134 -57.6028 -57.6002 -57.5981 -57.5940 -57.5928 -57.5905 -57.5895
   -57.5875 -57.5858 -57.5856 -57.5851 -57.5817 -57.5811 -57.5798 -57.5781
   -23.8481 -23.5070 -21.5145 -21.1123 -16.5923 -14.3687 -12.6902 -11.6946
    -9.7995  -9.0685  -9.0577  -8.4626  -8.3874  -8.2460  -8.2287  -7.9796
    -7.6179  -7.6152  -7.5799  -7.4595  -7.4549  -7.3168  -7.2949  -7.2926
    -7.2885  -7.2618  -7.1416  -7.1361  -7.1034  -7.1020  -7.1003  -7.0994
    -6.9601  -6.9575  -6.9560  -6.9532  -6.8938  -6.8891  -6.7897  -6.6275
    -6.6255  -6.6230  -6.6216  -6.5974  -6.5928  -6.5898  -6.5887  -6.5517
    -6.5436  -6.5173  -6.5157  -6.4024  -6.3619  -6.3576  -6.2844  -6.2815
    -6.2805  -6.2797  -6.2708  -6.2665  -5.9187  -5.8961  -5.8905  -5.8366
    -5.7415  -5.7305  -5.5842  -5.5812  -5.5319  -5.5257  -5.5191  -5.5162
    -5.5059  -5.4926  -5.4808  -5.4716  -5.4312  -5.4195  -5.4180  -5.4164
    -5.4121  -5.4092  -5.4078  -5.3550  -5.3422  -5.2963  -5.2907  -5.2644
    -5.2606  -5.2520  -5.2483  -5.2470  -5.2215  -5.0402  -5.0332  -5.0241
    -5.0219  -5.0210  -5.0093  -4.9707  -4.9666  -4.9597  -4.9563  -4.9404
    -4.9342  -4.8727  -4.8648  -4.8457  -4.7407  -4.7378  -4.6693  -4.6618
    -4.6529  -4.6460  -4.5919  -4.5895  -4.5874  -4.5863  -4.5595  -4.5505
    -4.3873  -4.3773  -4.2996  -4.2968  -4.2399  -4.2368  -4.2254  -4.2237
    -4.2157  -4.2114  -4.1176  -4.0575  -4.0498  -3.9469  -3.9383  -3.9307
    -3.9292  -3.9275  -3.9220  -3.8139  -3.8062  -3.8014  -3.7888  -3.7862
    -3.7852  -3.7747  -3.7333  -3.6915  -3.6568  -3.6474  -3.6078  -3.5894
    -3.5183  -3.5118  -3.5078  -3.5058  -3.4587  -3.4538  -3.4498  -3.4466
    -3.3900  -3.3851  -3.3674  -3.3582  -3.3553  -3.3522  -3.3336  -3.3269
    -3.2385  -3.2281  -3.1841  -3.1746  -3.1608  -3.1595  -3.1565  -3.1478
    -3.1106  -3.1029  -3.0979  -3.0975  -3.0461  -3.0404  -3.0180  -3.0131
    -2.9159  -2.9029  -2.9003  -2.8984  -2.8614  -2.8008  -2.7719  -2.7701
    -2.7676  -2.7657  -2.7463  -2.5506  -2.2775  -2.1810  -2.1237  -0.9970
    -0.9752  -0.9587  -0.9285  -0.7005  -0.6931  -0.6928  -0.6892  -0.5377
    -0.5220   0.5103   0.5332

          k = 0.0433-0.0250 0.0000 (101872 PWs)   bands (ev):

  -106.5330-106.4667-106.4576-106.4549-106.4509-106.4495-106.4484-106.4477
  -106.4459-106.4453-106.4444-106.4440-106.4432-106.4429-106.4427-106.4424
  -106.4417-106.4410-106.4405-106.4402-106.4400-106.4392-106.4389-106.4388
  -106.4383-106.4380-106.4374-106.4368-106.4363-106.4350-106.4348-106.4322
   -57.9152 -57.9120 -57.8840 -57.8838 -57.8816 -57.8753 -57.8721 -57.8694
   -57.8688 -57.8683 -57.8671 -57.8666 -57.8637 -57.8562 -57.8539 -57.8529
   -57.8505 -57.8463 -57.8449 -57.8444 -57.8368 -57.8361 -57.8330 -57.8327
   -57.8278 -57.8234 -57.8095 -57.8036 -57.8006 -57.7953 -57.7905 -57.7869
   -57.7860 -57.7855 -57.7839 -57.7811 -57.7746 -57.7740 -57.7705 -57.7698
   -57.7676 -57.7670 -57.7653 -57.7622 -57.7620 -57.7612 -57.7577 -57.7517
   -57.7502 -57.7496 -57.7486 -57.7479 -57.7457 -57.7452 -57.7444 -57.7431
   -57.7406 -57.7375 -57.7349 -57.7326 -57.7315 -57.7289 -57.7270 -57.7159
   -57.7138 -57.6839 -57.6782 -57.6698 -57.6672 -57.6559 -57.6507 -57.6492
   -57.6460 -57.6424 -57.6384 -57.6317 -57.6313 -57.6300 -57.6271 -57.6180
   -57.6106 -57.6054 -57.6016 -57.5950 -57.5939 -57.5935 -57.5907 -57.5896
   -57.5880 -57.5857 -57.5856 -57.5845 -57.5826 -57.5804 -57.5799 -57.5782
   -23.8481 -23.5070 -21.5145 -21.1123 -16.5923 -14.3687 -12.6902 -11.6946
    -9.7995  -9.0679  -9.0593  -8.4626  -8.3867  -8.2373  -8.2322  -7.9859
    -7.6188  -7.6137  -7.5848  -7.4563  -7.4486  -7.3175  -7.2958  -7.2919
    -7.2912  -7.2615  -7.1411  -7.1370  -7.1034  -7.1017  -7.1008  -7.0990
    -6.9605  -6.9570  -6.9550  -6.9529  -6.8949  -6.8879  -6.7908  -6.6295
    -6.6261  -6.6224  -6.6213  -6.6007  -6.5923  -6.5895  -6.5875  -6.5506
    -6.5440  -6.5183  -6.5144  -6.4002  -6.3622  -6.3593  -6.2833  -6.2829
    -6.2795  -6.2779  -6.2704  -6.2660  -5.9181  -5.8977  -5.8884  -5.8417
    -5.7474  -5.7331  -5.5845  -5.5810  -5.5371  -5.5203  -5.5198  -5.5106
    -5.5060  -5.4958  -5.4780  -5.4690  -5.4377  -5.4244  -5.4168  -5.4157
    -5.4103  -5.4099  -5.4019  -5.3524  -5.3382  -5.2957  -5.2915  -5.2634
    -5.2620  -5.2511  -5.2469  -5.2450  -5.2269  -5.0398  -5.0333  -5.0261
    -5.0236  -5.0194  -5.0007  -4.9714  -4.9636  -4.9614  -4.9590  -4.9407
    -4.9344  -4.8760  -4.8696  -4.8402  -4.7403  -4.7369  -4.6716  -4.6622
    -4.6511  -4.6484  -4.5914  -4.5907  -4.5873  -4.5848  -4.5584  -4.5542
    -4.3857  -4.3759  -4.3007  -4.2967  -4.2356  -4.2328  -4.2278  -4.2233
    -4.2170  -4.2112  -4.1410  -4.0505  -4.0350  -3.9460  -3.9383  -3.9330
    -3.9284  -3.9265  -3.8887  -3.8147  -3.8080  -3.8054  -3.7895  -3.7887
    -3.7873  -3.7736  -3.7478  -3.6949  -3.6555  -3.6519  -3.6070  -3.6005
    -3.5208  -3.5098  -3.5076  -3.5005  -3.4574  -3.4550  -3.4500  -3.4477
    -3.3887  -3.3851  -3.3732  -3.3582  -3.3556  -3.3476  -3.3314  -3.3261
    -3.2348  -3.2259  -3.1839  -3.1740  -3.1639  -3.1606  -3.1561  -3.1538
    -3.1099  -3.1028  -3.1004  -3.0966  -3.0453  -3.0408  -3.0183  -3.0131
    -2.9203  -2.9020  -2.8989  -2.8941  -2.8574  -2.8174  -2.7703  -2.7689
    -2.7689  -2.7662  -2.7359  -2.5428  -2.2802  -2.1695  -2.1429  -0.9979
    -0.9756  -0.9594  -0.9285  -0.6995  -0.6973  -0.6926  -0.6854  -0.5431
    -0.5076   0.4972   0.5569

          k =-0.0433-0.0250 0.0000 (101872 PWs)   bands (ev):

  -106.5330-106.4667-106.4576-106.4549-106.4508-106.4496-106.4489-106.4468
  -106.4459-106.4455-106.4447-106.4439-106.4434-106.4429-106.4428-106.4425
  -106.4413-106.4410-106.4406-106.4403-106.4395-106.4394-106.4389-106.4388
  -106.4384-106.4380-106.4375-106.4367-106.4364-106.4350-106.4348-106.4322
   -57.9166 -57.9107 -57.8845 -57.8829 -57.8810 -57.8742 -57.8725 -57.8707
   -57.8686 -57.8683 -57.8681 -57.8658 -57.8622 -57.8558 -57.8554 -57.8533
   -57.8516 -57.8460 -57.8451 -57.8445 -57.8369 -57.8353 -57.8340 -57.8326
   -57.8267 -57.8240 -57.8076 -57.8034 -57.8007 -57.7973 -57.7914 -57.7878
   -57.7860 -57.7843 -57.7827 -57.7803 -57.7751 -57.7747 -57.7701 -57.7696
   -57.7671 -57.7656 -57.7653 -57.7645 -57.7614 -57.7604 -57.7577 -57.7513
   -57.7509 -57.7501 -57.7489 -57.7475 -57.7462 -57.7450 -57.7434 -57.7433
   -57.7405 -57.7377 -57.7367 -57.7317 -57.7310 -57.7290 -57.7273 -57.7164
   -57.7130 -57.6823 -57.6798 -57.6726 -57.6636 -57.6560 -57.6505 -57.6487
   -57.6454 -57.6425 -57.6413 -57.6352 -57.6309 -57.6282 -57.6210 -57.6188
   -57.6158 -57.6040 -57.5987 -57.5962 -57.5954 -57.5931 -57.5919 -57.5886
   -57.5874 -57.5867 -57.5853 -57.5845 -57.5814 -57.5813 -57.5801 -57.5781
   -23.8481 -23.5070 -21.5145 -21.1123 -16.5923 -14.3687 -12.6902 -11.6946
    -9.7995  -9.0690  -9.0574  -8.4639  -8.3856  -8.2469  -8.2269  -7.9805
    -7.6174  -7.6166  -7.5819  -7.4575  -7.4546  -7.3140  -7.2947  -7.2925
    -7.2891  -7.2644  -7.1411  -7.1365  -7.1033  -7.1031  -7.1000  -7.0989
    -6.9618  -6.9561  -6.9559  -6.9526  -6.8938  -6.8886  -6.7901  -6.6272
    -6.6259  -6.6229  -6.6218  -6.5983  -6.5956  -6.5891  -6.5874  -6.5508
    -6.5432  -6.5176  -6.5159  -6.3933  -6.3684  -6.3595  -6.2871  -6.2829
    -6.2801  -6.2792  -6.2702  -6.2661  -5.9125  -5.8958  -5.8885  -5.8321
    -5.7414  -5.7376  -5.5845  -5.5812  -5.5384  -5.5261  -5.5185  -5.5163
    -5.5050  -5.4906  -5.4770  -5.4709  -5.4294  -5.4227  -5.4180  -5.4159
    -5.4143  -5.4090  -5.4073  -5.3542  -5.3410  -5.2962  -5.2900  -5.2646
    -5.2604  -5.2521  -5.2489  -5.2473  -5.2239  -5.0406  -5.0327  -5.0256
    -5.0223  -5.0206  -5.0155  -4.9715  -4.9659  -4.9595  -4.9566  -4.9413
    -4.9335  -4.8735  -4.8715  -4.8407  -4.7401  -4.7309  -4.6722  -4.6609
    -4.6506  -4.6450  -4.5948  -4.5891  -4.5870  -4.5846  -4.5579  -4.5540
    -4.3873  -4.3719  -4.3027  -4.2978  -4.2436  -4.2379  -4.2239  -4.2230
    -4.2160  -4.2107  -4.1315  -4.0568  -4.0343  -3.9476  -3.9375  -3.9335
    -3.9297  -3.9277  -3.9027  -3.8133  -3.8053  -3.8006  -3.7883  -3.7873
    -3.7846  -3.7667  -3.7460  -3.6993  -3.6579  -3.6497  -3.6090  -3.5948
    -3.5148  -3.5122  -3.5077  -3.5035  -3.4605  -3.4545  -3.4487  -3.4470
    -3.3896  -3.3848  -3.3654  -3.3594  -3.3549  -3.3541  -3.3327  -3.3252
    -3.2360  -3.2272  -3.1863  -3.1739  -3.1611  -3.1594  -3.1565  -3.1509
    -3.1122  -3.1019  -3.0984  -3.0977  -3.0464  -3.0400  -3.0187  -3.0122
    -2.9148  -2.9053  -2.9018  -2.8974  -2.8538  -2.8053  -2.7721  -2.7700
    -2.7676  -2.7658  -2.7439  -2.5531  -2.2768  -2.1799  -2.1239  -0.9983
    -0.9722  -0.9617  -0.9282  -0.7009  -0.6926  -0.6922  -0.6909  -0.5374
    -0.5183   0.5079   0.5409

     the Fermi energy is    -0.9460 ev

!    total energy              =   -8984.14933675 Ry
     Harris-Foulkes estimate   =   -8984.14933669 Ry
     estimated scf accuracy    <       0.00000071 Ry

     The total energy is the sum of the following terms:

     one-electron contribution =  -83336.39385701 Ry
     hartree contribution      =   41491.05231682 Ry
     xc contribution           =    -861.89519193 Ry
     ewald contribution        =   33723.13702764 Ry
     smearing contrib. (-TS)   =      -0.04963228 Ry

     convergence has been achieved in  27 iterations

     Forces acting on atoms (Ry/au):


     negative rho (up, down):  3.912E-03 0.000E+00
     atom    1 type  1   force =     0.00015977   -0.00011799   -0.03317648
     atom    2 type  1   force =    -0.00025173   -0.00009031    0.03296004
     atom    3 type  1   force =    -0.00015879    0.00004166   -0.03269647
     atom    4 type  1   force =    -0.00006809    0.00022434    0.03305155
     atom    5 type  1   force =    -0.00014244   -0.00010454   -0.03289304
     atom    6 type  1   force =    -0.00020989   -0.00023199    0.03339714
     atom    7 type  1   force =    -0.00010140    0.00002101   -0.03326536
     atom    8 type  1   force =     0.00000135   -0.00006464    0.03282049
     atom    9 type  1   force =    -0.00007634    0.00005685   -0.03316289
     atom   10 type  1   force =     0.00030268    0.00035017    0.03340834
     atom   11 type  1   force =    -0.00006810   -0.00005952   -0.03261472
     atom   12 type  1   force =     0.00024892   -0.00755953    0.02623044
     atom   13 type  1   force =     0.00058425    0.00008855   -0.03443721
     atom   14 type  1   force =    -0.01073991    0.00572565    0.01932952
     atom   15 type  1   force =    -0.00015235    0.00009581   -0.03272378
     atom   16 type  1   force =     0.00009336    0.00043571    0.03337533
     atom   17 type  1   force =     0.00005038    0.00011972   -0.03300500
     atom   18 type  1   force =    -0.00019764   -0.00021350    0.03295047
     atom   19 type  1   force =     0.00035746    0.00033810   -0.03253201
     atom   20 type  1   force =     0.00055930   -0.00051612    0.03222228
     atom   21 type  1   force =    -0.00063525    0.00043636   -0.03300783
     atom   22 type  1   force =     0.00595831    0.00372870    0.02704341
     atom   23 type  1   force =     0.00032116   -0.00064319   -0.03428505
     atom   24 type  1   force =    -0.00007042    0.00034304    0.03264788
     atom   25 type  1   force =    -0.00012224    0.00014207   -0.03282121
     atom   26 type  1   force =     0.00019621   -0.00001583    0.03296778
     atom   27 type  1   force =    -0.00012490    0.00012014   -0.03376799
     atom   28 type  1   force =     0.00002333    0.00020468    0.03286924
     atom   29 type  1   force =    -0.00004092   -0.00051223   -0.03223283
     atom   30 type  1   force =     0.00000825   -0.00029462    0.03328411
     atom   31 type  1   force =    -0.00004261    0.00010729   -0.03225480
     atom   32 type  1   force =    -0.00010161    0.00016575    0.03293646
     atom   33 type  2   force =     0.01715348   -0.00132404    0.00204751
     atom   34 type  2   force =     0.00165229    0.02846947   -0.01782663
     atom   35 type  2   force =     0.02242403   -0.00113378   -0.02317243
     atom   36 type  2   force =    -0.00021985    0.00530935   -0.01306579
     atom   37 type  3   force =    -0.00299173   -0.00903114    0.01587394
     atom   38 type  3   force =     0.00408030   -0.01893413    0.01040042
     atom   39 type  3   force =    -0.02783582    0.01090377    0.02832827
     atom   40 type  3   force =     0.00118003   -0.00188552    0.02794090
     atom   41 type  3   force =     0.00168001   -0.00029616   -0.00896161
     atom   42 type  4   force =    -0.00043895    0.00417069   -0.00478019
     atom   43 type  4   force =     0.00187582   -0.00189423   -0.00497294
     atom   44 type  4   force =    -0.00045574   -0.00529904   -0.00640614
     atom   45 type  4   force =     0.00044572    0.00609729    0.00727125
     atom   46 type  4   force =    -0.01235931    0.00052733    0.00880253
     atom   47 type  4   force =    -0.00175041   -0.01800144    0.00590310

     Total force =     0.201438     Total SCF correction =     0.002674
 !ASE

     Writing output data file calc.save
     Check: negative starting charge=   -0.002317
     NEW-OLD atomic charge density approx. for the potential
     Check: negative starting charge=   -0.002297

     negative rho (up, down):  4.972E-03 0.000E+00

     total cpu time spent up to now is     3093.4 secs

     per-process dynamical memory:   582.7 Mb

     Self-consistent Calculation

     iteration #  1     ecut=    40.42 Ry     beta=0.20
     Davidson diagonalization with overlap
     ethr =  2.50E-10,  avg # of iterations = 13.2

     negative rho (up, down):  3.314E-03 0.000E+00

     total cpu time spent up to now is     3504.6 secs

     total energy              =   -8984.09411798 Ry
     Harris-Foulkes estimate   =   -8984.10596534 Ry
     estimated scf accuracy    <       0.10206985 Ry

     iteration #  2     ecut=    40.42 Ry     beta=0.20
     Davidson diagonalization with overlap
     ethr =  1.55E-05,  avg # of iterations =  2.0

     negative rho (up, down):  3.783E-03 0.000E+00

     total cpu time spent up to now is     3606.7 secs

     total energy              =   -8984.06018181 Ry
     Harris-Foulkes estimate   =   -8984.09457552 Ry
     estimated scf accuracy    <       0.07134358 Ry

     iteration #  3     ecut=    40.42 Ry     beta=0.20
     Davidson diagonalization with overlap
     ethr =  1.08E-05,  avg # of iterations =  3.2

     negative rho (up, down):  2.401E-03 0.000E+00

     total cpu time spent up to now is     3717.4 secs

     total energy              =   -8984.06997155 Ry
     Harris-Foulkes estimate   =   -8984.07049456 Ry
     estimated scf accuracy    <       0.00771659 Ry

     iteration #  4     ecut=    40.42 Ry     beta=0.20
     Davidson diagonalization with overlap
     ethr =  1.17E-06,  avg # of iterations =  2.0

     negative rho (up, down):  1.250E-03 0.000E+00

     total cpu time spent up to now is     3821.3 secs

     total energy              =   -8984.06854896 Ry
     Harris-Foulkes estimate   =   -8984.07016810 Ry
     estimated scf accuracy    <       0.00555650 Ry

     iteration #  5     ecut=    40.42 Ry     beta=0.20
     Davidson diagonalization with overlap
     ethr =  8.44E-07,  avg # of iterations =  3.0

     negative rho (up, down):  8.511E-04 0.000E+00

     total cpu time spent up to now is     3926.1 secs

     total energy              =   -8984.06888999 Ry
     Harris-Foulkes estimate   =   -8984.06907300 Ry
     estimated scf accuracy    <       0.00221839 Ry

     iteration #  6     ecut=    40.42 Ry     beta=0.20
     Davidson diagonalization with overlap
     ethr =  3.37E-07,  avg # of iterations =  3.0

     negative rho (up, down):  3.808E-04 0.000E+00

     total cpu time spent up to now is     4037.5 secs

     total energy              =   -8984.06849522 Ry
     Harris-Foulkes estimate   =   -8984.06893766 Ry
     estimated scf accuracy    <       0.00176526 Ry

     iteration #  7     ecut=    40.42 Ry     beta=0.20
     Davidson diagonalization with overlap
     ethr =  2.68E-07,  avg # of iterations =  3.8

     negative rho (up, down):  3.285E-04 0.000E+00

     total cpu time spent up to now is     4149.1 secs

     total energy              =   -8984.06850573 Ry
     Harris-Foulkes estimate   =   -8984.06858363 Ry
     estimated scf accuracy    <       0.00095776 Ry

     iteration #  8     ecut=    40.42 Ry     beta=0.20
     Davidson diagonalization with overlap
     ethr =  1.46E-07,  avg # of iterations =  2.0

     negative rho (up, down):  4.466E-04 0.000E+00

     total cpu time spent up to now is     4249.2 secs

     total energy              =   -8984.06843816 Ry
     Harris-Foulkes estimate   =   -8984.06851758 Ry
     estimated scf accuracy    <       0.00079041 Ry

     iteration #  9     ecut=    40.42 Ry     beta=0.20
     Davidson diagonalization with overlap
     ethr =  1.20E-07,  avg # of iterations =  2.0

     negative rho (up, down):  5.263E-04 0.000E+00

     total cpu time spent up to now is     4352.3 secs

     total energy              =   -8984.06842992 Ry
     Harris-Foulkes estimate   =   -8984.06845598 Ry
     estimated scf accuracy    <       0.00062546 Ry

     iteration # 10     ecut=    40.42 Ry     beta=0.20
     Davidson diagonalization with overlap
     ethr =  9.51E-08,  avg # of iterations =  1.0

     negative rho (up, down):  7.194E-03 0.000E+00

     total cpu time spent up to now is     4450.8 secs

     total energy              =   -8984.06830663 Ry
     Harris-Foulkes estimate   =   -8984.06843296 Ry
     estimated scf accuracy    <       0.00053281 Ry

     iteration # 11     ecut=    40.42 Ry     beta=0.20
     Davidson diagonalization with overlap
     ethr =  8.10E-08,  avg # of iterations =  3.2

     negative rho (up, down):  6.533E-03 0.000E+00

     total cpu time spent up to now is     4558.3 secs

     total energy              =   -8984.06831649 Ry
     Harris-Foulkes estimate   =   -8984.06834295 Ry
     estimated scf accuracy    <       0.00026583 Ry

     iteration # 12     ecut=    40.42 Ry     beta=0.20
     Davidson diagonalization with overlap
     ethr =  4.04E-08,  avg # of iterations =  2.0

     negative rho (up, down):  8.388E-03 0.000E+00

     total cpu time spent up to now is     4658.9 secs

     total energy              =   -8984.06825239 Ry
     Harris-Foulkes estimate   =   -8984.06831930 Ry
     estimated scf accuracy    <       0.00020818 Ry

     iteration # 13     ecut=    40.42 Ry     beta=0.20
     Davidson diagonalization with overlap
     ethr =  3.16E-08,  avg # of iterations =  3.0

     negative rho (up, down):  7.880E-03 0.000E+00

     total cpu time spent up to now is     4775.3 secs

     total energy              =   -8984.06825820 Ry
     Harris-Foulkes estimate   =   -8984.06827782 Ry
     estimated scf accuracy    <       0.00005650 Ry

     iteration # 14     ecut=    40.42 Ry     beta=0.20
     Davidson diagonalization with overlap
     ethr =  8.59E-09,  avg # of iterations =  3.0

     negative rho (up, down):  7.351E-03 0.000E+00

     total cpu time spent up to now is     4878.4 secs

     total energy              =   -8984.06823950 Ry
     Harris-Foulkes estimate   =   -8984.06825991 Ry
     estimated scf accuracy    <       0.00003211 Ry

     iteration # 15     ecut=    40.42 Ry     beta=0.20
     Davidson diagonalization with overlap
     ethr =  4.88E-09,  avg # of iterations =  3.0

     negative rho (up, down):  6.842E-03 0.000E+00

     total cpu time spent up to now is     4985.9 secs

     total energy              =   -8984.06823680 Ry
     Harris-Foulkes estimate   =   -8984.06824282 Ry
     estimated scf accuracy    <       0.00001427 Ry

     iteration # 16     ecut=    40.42 Ry     beta=0.20
     Davidson diagonalization with overlap
     ethr =  2.17E-09,  avg # of iterations =  4.0

     negative rho (up, down):  6.376E-03 0.000E+00

     total cpu time spent up to now is     5096.5 secs

     total energy              =   -8984.06823357 Ry
     Harris-Foulkes estimate   =   -8984.06823794 Ry
     estimated scf accuracy    <       0.00000928 Ry

     iteration # 17     ecut=    40.42 Ry     beta=0.20
     Davidson diagonalization with overlap
     ethr =  1.41E-09,  avg # of iterations =  3.0

     negative rho (up, down):  5.467E-03 0.000E+00

     total cpu time spent up to now is     5200.6 secs

     total energy              =   -8984.06823075 Ry
     Harris-Foulkes estimate   =   -8984.06823399 Ry
     estimated scf accuracy    <       0.00000592 Ry

     iteration # 18     ecut=    40.42 Ry     beta=0.20
     Davidson diagonalization with overlap
     ethr =  9.00E-10,  avg # of iterations =  3.5

     negative rho (up, down):  5.111E-03 0.000E+00

     total cpu time spent up to now is     5303.6 secs

     total energy              =   -8984.06823008 Ry
     Harris-Foulkes estimate   =   -8984.06823108 Ry
     estimated scf accuracy    <       0.00000265 Ry

     iteration # 19     ecut=    40.42 Ry     beta=0.20
     Davidson diagonalization with overlap
     ethr =  4.02E-10,  avg # of iterations =  2.0

     negative rho (up, down):  4.444E-03 0.000E+00

     total cpu time spent up to now is     5408.4 secs

     total energy              =   -8984.06822883 Ry
     Harris-Foulkes estimate   =   -8984.06823014 Ry
     estimated scf accuracy    <       0.00000192 Ry

     iteration # 20     ecut=    40.42 Ry     beta=0.20
     Davidson diagonalization with overlap
     ethr =  2.92E-10,  avg # of iterations =  3.0

     negative rho (up, down):  4.011E-03 0.000E+00

     total cpu time spent up to now is     5502.9 secs

     End of self-consistent calculation

          k = 0.0000 0.0000 0.0000 (101779 PWs)   bands (ev):

  -106.2898-106.2161-106.1859-106.1826-106.1804-106.1787-106.1778-106.1770
  -106.1761-106.1740-106.1737-106.1721-106.1715-106.1703-106.1698-106.1697
  -106.1688-106.1684-106.1676-106.1670-106.1670-106.1663-106.1657-106.1651
  -106.1646-106.1644-106.1634-106.1629-106.1625-106.1614-106.1611-106.1607
   -57.6644 -57.6613 -57.6256 -57.6218 -57.6181 -57.6143 -57.6077 -57.6059
   -57.5924 -57.5920 -57.5915 -57.5896 -57.5884 -57.5877 -57.5845 -57.5832
   -57.5821 -57.5813 -57.5643 -57.5623 -57.5422 -57.5417 -57.5406 -57.5388
   -57.5369 -57.5353 -57.5342 -57.5329 -57.5313 -57.5299 -57.5289 -57.5282
   -57.5276 -57.5275 -57.5260 -57.5257 -57.5214 -57.5208 -57.5189 -57.5180
   -57.5170 -57.5158 -57.5045 -57.5022 -57.4987 -57.4883 -57.4874 -57.4861
   -57.4831 -57.4825 -57.4777 -57.4767 -57.4756 -57.4747 -57.4744 -57.4689
   -57.4659 -57.4656 -57.4640 -57.4627 -57.4623 -57.4547 -57.4543 -57.4441
   -57.4438 -57.3806 -57.3633 -57.3527 -57.3504 -57.3481 -57.3467 -57.3443
   -57.3382 -57.3320 -57.3278 -57.3255 -57.3244 -57.3231 -57.3225 -57.3220
   -57.3193 -57.3109 -57.3056 -57.3049 -57.3039 -57.3024 -57.3021 -57.3006
   -57.3004 -57.2997 -57.2992 -57.2972 -57.2970 -57.2963 -57.2959 -57.2943
   -25.7271 -24.3666 -21.8502 -21.6686 -16.5188 -13.8783 -11.9995 -10.6942
    -9.2598  -9.0214  -8.8282  -8.5622  -8.3331  -7.9652  -7.8832  -7.7610
    -7.4664  -7.4463  -7.4375  -7.4344  -7.4337  -7.4269  -7.3695  -6.9978
    -6.9958  -6.9915  -6.9543  -6.9506  -6.9478  -6.6540  -6.5879  -6.5809
    -6.5789  -6.5766  -6.5665  -6.5537  -6.3486  -6.2019  -6.1983  -6.1905
    -6.1435  -6.1093  -6.1056  -6.0982  -6.0970  -6.0941  -6.0440  -5.8487
    -5.8444  -5.8389  -5.8379  -5.8351  -5.8311  -5.7891  -5.7822  -5.7805
    -5.7742  -5.7736  -5.7638  -5.6070  -5.6049  -5.6041  -5.6031  -5.5940
    -5.5893  -5.5471  -5.3853  -5.3727  -5.3669  -5.2653  -5.1793  -5.1669
    -5.1629  -5.1624  -5.1580  -5.1560  -5.0753  -5.0590  -5.0535  -5.0503
    -5.0483  -5.0349  -4.9918  -4.9901  -4.8953  -4.8902  -4.8848  -4.8649
    -4.8382  -4.8354  -4.8261  -4.8219  -4.8156  -4.8154  -4.8139  -4.8111
    -4.8105  -4.8073  -4.7799  -4.7679  -4.7605  -4.7573  -4.7462  -4.7408
    -4.7241  -4.6120  -4.6037  -4.5928  -4.5912  -4.5819  -4.5799  -4.5720
    -4.5567  -4.5552  -4.5535  -4.5521  -4.5322  -4.2500  -4.2121  -4.2083
    -4.1736  -4.0672  -4.0576  -4.0557  -4.0530  -4.0478  -4.0453  -3.8920
    -3.8840  -3.8649  -3.8608  -3.8572  -3.8553  -3.8498  -3.8398  -3.8304
    -3.8288  -3.8268  -3.8184  -3.7979  -3.7163  -3.7082  -3.6998  -3.6534
    -3.6490  -3.6431  -3.6417  -3.6373  -3.6250  -3.6087  -3.5984  -3.5977
    -3.5939  -3.5933  -3.5784  -3.5362  -3.4714  -3.4705  -3.4504  -3.4302
    -3.4279  -3.4265  -3.4058  -3.3822  -3.2454  -3.2292  -3.2012  -3.1704
    -3.1576  -3.1522  -3.1465  -3.0103  -3.0075  -3.0023  -2.9992  -2.9982
    -2.9962  -2.9494  -2.9491  -2.9137  -2.7982  -2.7794  -2.7785  -2.7775
    -2.7722  -2.7571  -2.6732  -2.4217  -2.4202  -2.4163  -2.3537  -2.3524
    -2.3500  -1.9905  -1.9813  -1.9756  -1.9740  -1.9457  -1.8411  -0.4125
    -0.4080  -0.4025  -0.4013  -0.3980  -0.3945  -0.3148  -0.1194  -0.1143
    -0.0854   0.7019   0.7055

          k = 0.0000-0.0501 0.0000 (101872 PWs)   bands (ev):

  -106.2898-106.2161-106.1858-106.1826-106.1802-106.1790-106.1778-106.1769
  -106.1761-106.1743-106.1735-106.1719-106.1714-106.1708-106.1697-106.1695
  -106.1687-106.1685-106.1676-106.1672-106.1669-106.1663-106.1655-106.1651
  -106.1646-106.1643-106.1634-106.1631-106.1626-106.1613-106.1612-106.1606
   -57.6613 -57.6597 -57.6174 -57.6119 -57.6109 -57.6087 -57.6041 -57.6000
   -57.5987 -57.5974 -57.5964 -57.5927 -57.5925 -57.5874 -57.5853 -57.5827
   -57.5820 -57.5760 -57.5719 -57.5713 -57.5677 -57.5653 -57.5640 -57.5627
   -57.5563 -57.5500 -57.5424 -57.5381 -57.5349 -57.5303 -57.5188 -57.5172
   -57.5159 -57.5110 -57.5108 -57.5102 -57.5084 -57.5046 -57.5000 -57.4983
   -57.4981 -57.4970 -57.4959 -57.4951 -57.4935 -57.4905 -57.4877 -57.4856
   -57.4852 -57.4842 -57.4832 -57.4804 -57.4784 -57.4766 -57.4756 -57.4737
   -57.4720 -57.4717 -57.4666 -57.4650 -57.4627 -57.4621 -57.4592 -57.4527
   -57.4479 -57.3804 -57.3617 -57.3572 -57.3524 -57.3490 -57.3407 -57.3399
   -57.3369 -57.3344 -57.3318 -57.3284 -57.3257 -57.3238 -57.3219 -57.3205
   -57.3156 -57.3095 -57.3065 -57.3063 -57.3045 -57.3030 -57.3014 -57.3007
   -57.3000 -57.2996 -57.2989 -57.2973 -57.2970 -57.2963 -57.2959 -57.2943
   -25.7271 -24.3666 -21.8502 -21.6686 -16.5188 -13.8783 -11.9995 -10.6939
    -9.2591  -8.8502  -8.5671  -8.5251  -8.5222  -8.3300  -7.9646  -7.8809
    -7.6904  -7.6737  -7.3769  -7.3074  -7.3035  -6.9962  -6.9900  -6.7792
    -6.7648  -6.7608  -6.7435  -6.7415  -6.7368  -6.6711  -6.6548  -6.6526
    -6.6482  -6.6254  -6.5612  -6.5556  -6.5499  -6.5440  -6.5424  -6.5286
    -6.3284  -6.2473  -6.2448  -6.2354  -6.2268  -6.1020  -6.0667  -6.0570
    -6.0483  -6.0354  -6.0281  -6.0116  -5.9616  -5.9477  -5.8475  -5.8349
    -5.8026  -5.7986  -5.7947  -5.7913  -5.7644  -5.7539  -5.5501  -5.5253
    -5.5120  -5.3770  -5.3694  -5.2827  -5.2719  -5.2685  -5.2594  -5.2564
    -5.2525  -5.2401  -5.2226  -5.1726  -5.1629  -5.1602  -5.1543  -5.1262
    -5.1119  -5.1074  -5.1033  -5.0376  -5.0332  -5.0264  -5.0191  -4.9340
    -4.9185  -4.9008  -4.8933  -4.8858  -4.8679  -4.7827  -4.7362  -4.7299
    -4.7168  -4.7072  -4.6909  -4.6858  -4.6039  -4.5953  -4.5460  -4.5340
    -4.4942  -4.4643  -4.4457  -4.4371  -4.4305  -4.4283  -4.3984  -4.3870
    -4.2904  -4.2305  -4.2258  -4.2199  -4.1487  -4.1418  -4.1352  -4.1243
    -4.1212  -4.0558  -4.0438  -3.9891  -3.9761  -3.9648  -3.9521  -3.9469
    -3.9385  -3.9360  -3.9223  -3.8581  -3.8536  -3.8280  -3.7413  -3.7325
    -3.6986  -3.6661  -3.6562  -3.6495  -3.6481  -3.6470  -3.6448  -3.6363
    -3.5920  -3.5835  -3.5673  -3.5473  -3.5222  -3.4745  -3.4649  -3.4522
    -3.3874  -3.3340  -3.3286  -3.3185  -3.3146  -3.3111  -3.3094  -3.3073
    -3.2868  -3.2286  -3.2179  -3.2125  -3.2107  -3.2079  -3.2043  -3.1683
    -3.1640  -3.1012  -3.0879  -3.0520  -3.0406  -2.9862  -2.9801  -2.9744
    -2.9660  -2.9614  -2.9553  -2.9149  -2.8572  -2.8530  -2.8342  -2.8179
    -2.7980  -2.7920  -2.7857  -2.7372  -2.7351  -2.7341  -2.7298  -2.6643
    -2.5535  -2.5161  -2.5125  -2.5054  -2.4751  -2.1535  -2.0868  -1.0281
    -1.0133  -0.9858  -0.9518  -0.5875  -0.5699  -0.4046  -0.3934  -0.3930
    -0.3849   0.5913   0.6174

          k = 0.0433-0.0250 0.0000 (101872 PWs)   bands (ev):

  -106.2898-106.2161-106.1858-106.1827-106.1802-106.1788-106.1779-106.1770
  -106.1760-106.1743-106.1735-106.1719-106.1715-106.1705-106.1700-106.1694
  -106.1687-106.1685-106.1675-106.1672-106.1668-106.1663-106.1655-106.1652
  -106.1646-106.1644-106.1634-106.1631-106.1625-106.1613-106.1612-106.1606
   -57.6627 -57.6584 -57.6160 -57.6144 -57.6088 -57.6077 -57.6048 -57.6003
   -57.5991 -57.5975 -57.5968 -57.5943 -57.5917 -57.5871 -57.5849 -57.5825
   -57.5817 -57.5750 -57.5732 -57.5727 -57.5678 -57.5663 -57.5632 -57.5625
   -57.5563 -57.5498 -57.5437 -57.5374 -57.5342 -57.5285 -57.5180 -57.5171
   -57.5138 -57.5131 -57.5111 -57.5103 -57.5090 -57.5030 -57.5007 -57.4996
   -57.4983 -57.4970 -57.4959 -57.4954 -57.4937 -57.4906 -57.4876 -57.4856
   -57.4849 -57.4839 -57.4834 -57.4808 -57.4780 -57.4767 -57.4755 -57.4741
   -57.4726 -57.4716 -57.4667 -57.4639 -57.4627 -57.4619 -57.4597 -57.4521
   -57.4483 -57.3805 -57.3605 -57.3580 -57.3537 -57.3479 -57.3418 -57.3398
   -57.3353 -57.3327 -57.3316 -57.3313 -57.3251 -57.3240 -57.3236 -57.3190
   -57.3144 -57.3113 -57.3065 -57.3047 -57.3044 -57.3038 -57.3012 -57.3009
   -57.3003 -57.2997 -57.2987 -57.2973 -57.2969 -57.2964 -57.2958 -57.2944
   -25.7271 -24.3666 -21.8503 -21.6686 -16.5188 -13.8783 -11.9995 -10.6938
    -9.2591  -8.8503  -8.5647  -8.5320  -8.5205  -8.3270  -7.9648  -7.8823
    -7.6831  -7.6767  -7.3781  -7.3092  -7.3021  -7.0034  -6.9922  -6.7761
    -6.7666  -6.7502  -6.7458  -6.7388  -6.7377  -6.6623  -6.6542  -6.6517
    -6.6510  -6.6299  -6.5568  -6.5563  -6.5504  -6.5434  -6.5404  -6.5283
    -6.3414  -6.2434  -6.2410  -6.2382  -6.2323  -6.1126  -6.0682  -6.0586
    -6.0499  -6.0438  -6.0154  -6.0035  -5.9610  -5.9566  -5.8348  -5.8288
    -5.8013  -5.8004  -5.7949  -5.7909  -5.7646  -5.7598  -5.5507  -5.5260
    -5.5118  -5.3827  -5.3682  -5.2818  -5.2779  -5.2736  -5.2612  -5.2570
    -5.2400  -5.2313  -5.2277  -5.1714  -5.1633  -5.1596  -5.1528  -5.1233
    -5.1198  -5.1059  -5.1030  -5.0364  -5.0333  -5.0266  -5.0192  -4.9371
    -4.9123  -4.9001  -4.8924  -4.8879  -4.8735  -4.7820  -4.7399  -4.7266
    -4.7221  -4.6987  -4.6936  -4.6856  -4.6014  -4.5979  -4.5525  -4.5354
    -4.4842  -4.4647  -4.4469  -4.4377  -4.4291  -4.4266  -4.3993  -4.3918
    -4.2831  -4.2310  -4.2233  -4.2179  -4.1845  -4.1386  -4.1349  -4.1245
    -4.0884  -4.0569  -4.0458  -3.9844  -3.9792  -3.9578  -3.9476  -3.9446
    -3.9396  -3.9376  -3.9336  -3.8570  -3.8483  -3.8276  -3.7382  -3.7334
    -3.7040  -3.6659  -3.6569  -3.6528  -3.6514  -3.6472  -3.6440  -3.6106
    -3.5896  -3.5834  -3.5762  -3.5633  -3.5195  -3.4690  -3.4658  -3.4533
    -3.3929  -3.3321  -3.3292  -3.3201  -3.3161  -3.3116  -3.3090  -3.3013
    -3.2988  -3.2319  -3.2174  -3.2137  -3.2111  -3.2041  -3.2022  -3.1673
    -3.1612  -3.0961  -3.0859  -3.0496  -3.0432  -2.9866  -2.9798  -2.9762
    -2.9725  -2.9601  -2.9563  -2.9165  -2.8624  -2.8528  -2.8350  -2.8170
    -2.7986  -2.7970  -2.7908  -2.7374  -2.7368  -2.7351  -2.7157  -2.6653
    -2.5487  -2.5162  -2.5091  -2.5076  -2.4729  -2.1402  -2.1077  -1.0234
    -1.0125  -0.9946  -0.9508  -0.5888  -0.5634  -0.4026  -0.3990  -0.3927
    -0.3781   0.5727   0.6474

          k =-0.0433-0.0250 0.0000 (101872 PWs)   bands (ev):

  -106.2898-106.2161-106.1858-106.1826-106.1803-106.1789-106.1778-106.1769
  -106.1762-106.1740-106.1737-106.1719-106.1715-106.1709-106.1698-106.1693
  -106.1687-106.1686-106.1676-106.1670-106.1667-106.1663-106.1656-106.1653
  -106.1646-106.1644-106.1634-106.1629-106.1625-106.1613-106.1613-106.1606
   -57.6627 -57.6587 -57.6182 -57.6110 -57.6086 -57.6069 -57.6049 -57.5994
   -57.5978 -57.5972 -57.5961 -57.5949 -57.5924 -57.5895 -57.5867 -57.5839
   -57.5824 -57.5749 -57.5724 -57.5720 -57.5674 -57.5652 -57.5646 -57.5632
   -57.5549 -57.5504 -57.5421 -57.5384 -57.5343 -57.5287 -57.5193 -57.5165
   -57.5150 -57.5121 -57.5107 -57.5097 -57.5057 -57.5038 -57.5022 -57.4992
   -57.4971 -57.4968 -57.4963 -57.4956 -57.4931 -57.4910 -57.4882 -57.4872
   -57.4859 -57.4842 -57.4823 -57.4806 -57.4777 -57.4764 -57.4760 -57.4740
   -57.4732 -57.4708 -57.4664 -57.4654 -57.4633 -57.4621 -57.4580 -57.4532
   -57.4473 -57.3804 -57.3611 -57.3582 -57.3526 -57.3482 -57.3409 -57.3388
   -57.3368 -57.3334 -57.3330 -57.3313 -57.3247 -57.3229 -57.3227 -57.3177
   -57.3169 -57.3112 -57.3063 -57.3050 -57.3042 -57.3027 -57.3023 -57.3009
   -57.3004 -57.2995 -57.2986 -57.2973 -57.2970 -57.2963 -57.2958 -57.2943
   -25.7271 -24.3666 -21.8503 -21.6686 -16.5188 -13.8783 -11.9995 -10.6939
    -9.2591  -8.8501  -8.5665  -8.5253  -8.5238  -8.3294  -7.9640  -7.8804
    -7.6904  -7.6732  -7.3777  -7.3090  -7.3022  -6.9980  -6.9890  -6.7807
    -6.7671  -6.7558  -6.7449  -6.7403  -6.7390  -6.6694  -6.6556  -6.6519
    -6.6478  -6.6236  -6.5626  -6.5567  -6.5483  -6.5423  -6.5413  -6.5278
    -6.3358  -6.2487  -6.2443  -6.2358  -6.2240  -6.1022  -6.0700  -6.0628
    -6.0463  -6.0411  -6.0194  -6.0146  -5.9641  -5.9475  -5.8434  -5.8279
    -5.8034  -5.7975  -5.7930  -5.7844  -5.7667  -5.7544  -5.5500  -5.5251
    -5.5115  -5.3805  -5.3700  -5.2838  -5.2730  -5.2714  -5.2602  -5.2580
    -5.2532  -5.2348  -5.2148  -5.1738  -5.1627  -5.1602  -5.1540  -5.1282
    -5.1100  -5.1084  -5.1059  -5.0378  -5.0315  -5.0248  -5.0177  -4.9328
    -4.9215  -4.9014  -4.8927  -4.8836  -4.8766  -4.7851  -4.7365  -4.7313
    -4.7211  -4.7144  -4.6928  -4.6843  -4.6054  -4.5940  -4.5470  -4.5408
    -4.4842  -4.4565  -4.4420  -4.4377  -4.4287  -4.4205  -4.3964  -4.3867
    -4.2917  -4.2296  -4.2219  -4.2203  -4.1806  -4.1408  -4.1380  -4.1236
    -4.1025  -4.0568  -4.0482  -3.9888  -3.9713  -3.9602  -3.9504  -3.9452
    -3.9380  -3.9367  -3.9282  -3.8576  -3.8458  -3.8283  -3.7411  -3.7303
    -3.7007  -3.6637  -3.6564  -3.6495  -3.6484  -3.6474  -3.6458  -3.6260
    -3.5910  -3.5867  -3.5671  -3.5586  -3.5288  -3.4746  -3.4651  -3.4537
    -3.3870  -3.3334  -3.3300  -3.3166  -3.3152  -3.3112  -3.3097  -3.3054
    -3.2867  -3.2282  -3.2177  -3.2148  -3.2091  -3.2083  -3.2029  -3.1692
    -3.1628  -3.0984  -3.0874  -3.0535  -3.0406  -2.9880  -2.9797  -2.9741
    -2.9668  -2.9635  -2.9534  -2.9122  -2.8635  -2.8536  -2.8339  -2.8191
    -2.7973  -2.7927  -2.7905  -2.7388  -2.7350  -2.7334  -2.7201  -2.6649
    -2.5545  -2.5161  -2.5128  -2.5060  -2.4725  -2.1509  -2.0879  -1.0297
    -1.0092  -0.9894  -0.9521  -0.5853  -0.5669  -0.4048  -0.3928  -0.3915
    -0.3889   0.5843   0.6311

     the Fermi energy is    -0.9339 ev

!    total energy              =   -8984.06822906 Ry
     Harris-Foulkes estimate   =   -8984.06822895 Ry
     estimated scf accuracy    <       0.00000058 Ry

     The total energy is the sum of the following terms:

     one-electron contribution =  -81898.30576265 Ry
     hartree contribution      =   40777.80564574 Ry
     xc contribution           =    -861.47829961 Ry
     ewald contribution        =   32997.94326890 Ry
     smearing contrib. (-TS)   =      -0.03308144 Ry

     convergence has been achieved in  20 iterations

     Forces acting on atoms (Ry/au):


     negative rho (up, down):  4.011E-03 0.000E+00
     atom    1 type  1   force =     0.00000173    0.00000005   -0.01193546
     atom    2 type  1   force =    -0.00092591   -0.00122803    0.01171695
     atom    3 type  1   force =     0.00007259    0.00020040   -0.01161427
     atom    4 type  1   force =    -0.00049776   -0.00035050    0.01134057
     atom    5 type  1   force =     0.00011415    0.00000434   -0.01179987
     atom    6 type  1   force =    -0.00256143   -0.00019531    0.01218926
     atom    7 type  1   force =     0.00004076   -0.00005788   -0.01177601
     atom    8 type  1   force =    -0.00001645    0.00000444    0.01140965
     atom    9 type  1   force =     0.00007758   -0.00001193   -0.01177429
     atom   10 type  1   force =     0.00093955   -0.00129818    0.01192893
     atom   11 type  1   force =    -0.00061044   -0.00048986   -0.01170691
     atom   12 type  1   force =     0.00001588   -0.00212432    0.00603968
     atom   13 type  1   force =    -0.00098822   -0.00069482   -0.01374553
     atom   14 type  1   force =    -0.00398423    0.00181693    0.00254694
     atom   15 type  1   force =    -0.00021167    0.00012129   -0.01168099
     atom   16 type  1   force =    -0.00105030    0.00236109    0.01209522
     atom   17 type  1   force =     0.00005980   -0.00008419   -0.01187720
     atom   18 type  1   force =    -0.00008014   -0.00015043    0.01161500
     atom   19 type  1   force =     0.00058083   -0.00022437   -0.01172557
     atom   20 type  1   force =     0.00076197   -0.00043396    0.01078982
     atom   21 type  1   force =     0.00007331   -0.00005939   -0.01002662
     atom   22 type  1   force =     0.00136993    0.00121376    0.00634956
     atom   23 type  1   force =     0.00004943    0.00113453   -0.01344535
     atom   24 type  1   force =    -0.00001860    0.00073429    0.01098578
     atom   25 type  1   force =    -0.00014823   -0.00007544   -0.01161276
     atom   26 type  1   force =     0.00020958    0.00000403    0.01161299
     atom   27 type  1   force =    -0.00000874   -0.00001523   -0.01210166
     atom   28 type  1   force =     0.00006973    0.00012511    0.01159880
     atom   29 type  1   force =     0.00041646   -0.00034772   -0.01133016
     atom   30 type  1   force =     0.00147870   -0.00018136    0.01179730
     atom   31 type  1   force =     0.00020224    0.00071495   -0.01132463
     atom   32 type  1   force =     0.00060936    0.00136279    0.01161562
     atom   33 type  2   force =    -0.10274154    0.02632210   -0.00291867
     atom   34 type  2   force =    -0.01084682   -0.09829060    0.00610997
     atom   35 type  2   force =    -0.77035424   -0.03964094    0.59493666
     atom   36 type  2   force =     0.04160136   -0.04146658    0.38588393
     atom   37 type  3   force =     0.02012876    0.03344725   -0.02559093
     atom   38 type  3   force =     0.01284311    0.15520728   -0.03562558
     atom   39 type  3   force =     0.81392840    0.01838177   -0.58808556
     atom   40 type  3   force =    -0.04186640    0.06479126   -0.45260472
     atom   41 type  3   force =    -0.00278186   -0.14227122    0.08818556
     atom   42 type  4   force =    -0.02572747   -0.03352498    0.01928322
     atom   43 type  4   force =    -0.01615934    0.01276942    0.01473604
     atom   44 type  4   force =     0.00232069    0.00098970    0.00090205
     atom   45 type  4   force =    -0.00406757    0.00386891   -0.03313342
     atom   46 type  4   force =     0.07821454   -0.01305921    0.00670099
     atom   47 type  4   force =     0.00946688    0.05070077    0.04506567

     Total force =     1.554571     Total SCF correction =     0.003946
 !ASE

     Writing output data file calc.save
     Check: negative starting charge=   -0.002297
     NEW-OLD atomic charge density approx. for the potential
     Check: negative starting charge=   -0.002361

     negative rho (up, down):  4.545E-03 0.000E+00

     total cpu time spent up to now is     5531.4 secs

     per-process dynamical memory:   582.7 Mb

     Self-consistent Calculation

     iteration #  1     ecut=    40.42 Ry     beta=0.20
     Davidson diagonalization with overlap
     ethr =  2.92E-10,  avg # of iterations = 12.2

     negative rho (up, down):  4.968E-03 0.000E+00

     total cpu time spent up to now is     5919.2 secs

     total energy              =   -8984.19970756 Ry
     Harris-Foulkes estimate   =   -8984.20442493 Ry
     estimated scf accuracy    <       0.04109940 Ry

     iteration #  2     ecut=    40.42 Ry     beta=0.20
     Davidson diagonalization with overlap
     ethr =  6.25E-06,  avg # of iterations =  1.0

     negative rho (up, down):  1.345E-02 0.000E+00

     total cpu time spent up to now is     6024.0 secs

     total energy              =   -8984.18597012 Ry
     Harris-Foulkes estimate   =   -8984.19987744 Ry
     estimated scf accuracy    <       0.02902864 Ry

     iteration #  3     ecut=    40.42 Ry     beta=0.20
     Davidson diagonalization with overlap
     ethr =  4.41E-06,  avg # of iterations =  3.5

     negative rho (up, down):  1.277E-02 0.000E+00

     total cpu time spent up to now is     6137.2 secs

     total energy              =   -8984.18991837 Ry
     Harris-Foulkes estimate   =   -8984.19008332 Ry
     estimated scf accuracy    <       0.00302765 Ry

     iteration #  4     ecut=    40.42 Ry     beta=0.20
     Davidson diagonalization with overlap
     ethr =  4.60E-07,  avg # of iterations =  3.0

     negative rho (up, down):  1.469E-02 0.000E+00

     total cpu time spent up to now is     6243.4 secs

     total energy              =   -8984.18945940 Ry
     Harris-Foulkes estimate   =   -8984.18998278 Ry
     estimated scf accuracy    <       0.00221446 Ry

     iteration #  5     ecut=    40.42 Ry     beta=0.20
     Davidson diagonalization with overlap
     ethr =  3.37E-07,  avg # of iterations =  4.0

     negative rho (up, down):  1.503E-02 0.000E+00

     total cpu time spent up to now is     6356.4 secs

     total energy              =   -8984.18952605 Ry
     Harris-Foulkes estimate   =   -8984.18962802 Ry
     estimated scf accuracy    <       0.00091024 Ry

     iteration #  6     ecut=    40.42 Ry     beta=0.20
     Davidson diagonalization with overlap
     ethr =  1.38E-07,  avg # of iterations =  3.0

     negative rho (up, down):  1.601E-02 0.000E+00

     total cpu time spent up to now is     6464.3 secs

     total energy              =   -8984.18937278 Ry
     Harris-Foulkes estimate   =   -8984.18953299 Ry
     estimated scf accuracy    <       0.00068004 Ry

     iteration #  7     ecut=    40.42 Ry     beta=0.20
     Davidson diagonalization with overlap
     ethr =  1.03E-07,  avg # of iterations =  3.5

     negative rho (up, down):  1.425E-02 0.000E+00

     total cpu time spent up to now is     6571.7 secs

     total energy              =   -8984.18933066 Ry
     Harris-Foulkes estimate   =   -8984.18941505 Ry
     estimated scf accuracy    <       0.00038325 Ry

     iteration #  8     ecut=    40.42 Ry     beta=0.20
     Davidson diagonalization with overlap
     ethr =  5.82E-08,  avg # of iterations =  3.0

     negative rho (up, down):  1.261E-02 0.000E+00

     total cpu time spent up to now is     6676.7 secs

     total energy              =   -8984.18926191 Ry
     Harris-Foulkes estimate   =   -8984.18934150 Ry
     estimated scf accuracy    <       0.00032982 Ry

     iteration #  9     ecut=    40.42 Ry     beta=0.20
     Davidson diagonalization with overlap
     ethr =  5.01E-08,  avg # of iterations =  2.0

     negative rho (up, down):  1.026E-02 0.000E+00

     total cpu time spent up to now is     6780.2 secs

     total energy              =   -8984.18919566 Ry
     Harris-Foulkes estimate   =   -8984.18926880 Ry
     estimated scf accuracy    <       0.00025909 Ry

     iteration # 10     ecut=    40.42 Ry     beta=0.20
     Davidson diagonalization with overlap
     ethr =  3.94E-08,  avg # of iterations =  2.0

     negative rho (up, down):  5.300E-03 0.000E+00

     total cpu time spent up to now is     6884.9 secs

     total energy              =   -8984.18907793 Ry
     Harris-Foulkes estimate   =   -8984.18919892 Ry
     estimated scf accuracy    <       0.00019182 Ry

     iteration # 11     ecut=    40.42 Ry     beta=0.20
     Davidson diagonalization with overlap
     ethr =  2.92E-08,  avg # of iterations =  3.0

     negative rho (up, down):  3.268E-03 0.000E+00

     total cpu time spent up to now is     6990.0 secs

     total energy              =   -8984.18906201 Ry
     Harris-Foulkes estimate   =   -8984.18908683 Ry
     estimated scf accuracy    <       0.00009583 Ry

     iteration # 12     ecut=    40.42 Ry     beta=0.20
     Davidson diagonalization with overlap
     ethr =  1.46E-08,  avg # of iterations =  4.0

     negative rho (up, down):  2.241E-03 0.000E+00

     total cpu time spent up to now is     7100.7 secs

     total energy              =   -8984.18905202 Ry
     Harris-Foulkes estimate   =   -8984.18906856 Ry
     estimated scf accuracy    <       0.00005970 Ry

     iteration # 13     ecut=    40.42 Ry     beta=0.20
     Davidson diagonalization with overlap
     ethr =  9.07E-09,  avg # of iterations =  3.0

     negative rho (up, down):  2.219E-03 0.000E+00

     total cpu time spent up to now is     7210.0 secs

     total energy              =   -8984.18905432 Ry
     Harris-Foulkes estimate   =   -8984.18905655 Ry
     estimated scf accuracy    <       0.00002259 Ry

     iteration # 14     ecut=    40.42 Ry     beta=0.20
     Davidson diagonalization with overlap
     ethr =  3.43E-09,  avg # of iterations =  3.5

     negative rho (up, down):  2.455E-03 0.000E+00

     total cpu time spent up to now is     7325.7 secs

     total energy              =   -8984.18905330 Ry
     Harris-Foulkes estimate   =   -8984.18905574 Ry
     estimated scf accuracy    <       0.00001008 Ry

     iteration # 15     ecut=    40.42 Ry     beta=0.20
     Davidson diagonalization with overlap
     ethr =  1.53E-09,  avg # of iterations =  3.0

     negative rho (up, down):  2.967E-03 0.000E+00

     total cpu time spent up to now is     7429.8 secs

     total energy              =   -8984.18905223 Ry
     Harris-Foulkes estimate   =   -8984.18905373 Ry
     estimated scf accuracy    <       0.00000615 Ry

     iteration # 16     ecut=    40.42 Ry     beta=0.20
     Davidson diagonalization with overlap
     ethr =  9.34E-10,  avg # of iterations =  3.0

     negative rho (up, down):  3.057E-03 0.000E+00

     total cpu time spent up to now is     7533.7 secs

     total energy              =   -8984.18905237 Ry
     Harris-Foulkes estimate   =   -8984.18905261 Ry
     estimated scf accuracy    <       0.00000236 Ry

     iteration # 17     ecut=    40.42 Ry     beta=0.20
     Davidson diagonalization with overlap
     ethr =  3.58E-10,  avg # of iterations =  2.2

     negative rho (up, down):  3.446E-03 0.000E+00

     total cpu time spent up to now is     7632.4 secs

     total energy              =   -8984.18905172 Ry
     Harris-Foulkes estimate   =   -8984.18905239 Ry
     estimated scf accuracy    <       0.00000186 Ry

     iteration # 18     ecut=    40.42 Ry     beta=0.20
     Davidson diagonalization with overlap
     ethr =  2.82E-10,  avg # of iterations =  3.0

     negative rho (up, down):  3.499E-03 0.000E+00

     total cpu time spent up to now is     7741.7 secs

     total energy              =   -8984.18905159 Ry
     Harris-Foulkes estimate   =   -8984.18905183 Ry
     estimated scf accuracy    <       0.00000110 Ry

     iteration # 19     ecut=    40.42 Ry     beta=0.20
     Davidson diagonalization with overlap
     ethr =  1.67E-10,  avg # of iterations =  3.8

     negative rho (up, down):  3.932E-03 0.000E+00

     total cpu time spent up to now is     7855.1 secs

     total energy              =   -8984.18905071 Ry
     Harris-Foulkes estimate   =   -8984.18905164 Ry
     estimated scf accuracy    <       0.00000077 Ry

     iteration # 20     ecut=    40.42 Ry     beta=0.20
     Davidson diagonalization with overlap
     ethr =  1.17E-10,  avg # of iterations =  3.8

     negative rho (up, down):  3.968E-03 0.000E+00

     total cpu time spent up to now is     7950.6 secs

     End of self-consistent calculation

          k = 0.0000 0.0000 0.0000 (101779 PWs)   bands (ev):

  -106.4590-106.3890-106.3717-106.3694-106.3653-106.3629-106.3628-106.3619
  -106.3605-106.3593-106.3591-106.3589-106.3573-106.3570-106.3561-106.3555
  -106.3551-106.3547-106.3542-106.3540-106.3536-106.3536-106.3526-106.3523
  -106.3516-106.3514-106.3511-106.3507-106.3506-106.3505-106.3501-106.3491
   -57.8400 -57.8373 -57.8116 -57.8044 -57.8012 -57.7992 -57.7914 -57.7893
   -57.7788 -57.7778 -57.7768 -57.7751 -57.7741 -57.7735 -57.7694 -57.7692
   -57.7687 -57.7680 -57.7468 -57.7450 -57.7286 -57.7279 -57.7270 -57.7253
   -57.7218 -57.7204 -57.7198 -57.7180 -57.7163 -57.7146 -57.7146 -57.7140
   -57.7133 -57.7125 -57.7123 -57.7113 -57.7041 -57.7033 -57.7021 -57.7007
   -57.7002 -57.6998 -57.6911 -57.6889 -57.6872 -57.6727 -57.6715 -57.6681
   -57.6673 -57.6655 -57.6648 -57.6639 -57.6628 -57.6625 -57.6551 -57.6512
   -57.6486 -57.6474 -57.6463 -57.6453 -57.6449 -57.6411 -57.6410 -57.6273
   -57.6271 -57.5814 -57.5699 -57.5606 -57.5588 -57.5576 -57.5563 -57.5517
   -57.5408 -57.5348 -57.5302 -57.5299 -57.5287 -57.5274 -57.5270 -57.5262
   -57.5203 -57.5056 -57.5003 -57.4995 -57.4990 -57.4980 -57.4972 -57.4969
   -57.4963 -57.4937 -57.4917 -57.4905 -57.4894 -57.4892 -57.4886 -57.4867
   -24.1064 -23.5265 -21.9990 -21.5671 -16.5376 -14.1727 -12.4431 -11.3026
    -9.5749  -9.3489  -8.4681  -8.3318  -8.0524  -7.9500  -7.8057  -7.7954
    -7.7876  -7.7864  -7.7838  -7.7668  -7.6411  -7.4386  -7.2549  -7.2534
    -7.2515  -7.2122  -7.2106  -7.2103  -6.8920  -6.8136  -6.8082  -6.8067
    -6.8049  -6.8019  -6.7965  -6.5510  -6.5479  -6.5456  -6.4956  -6.4872
    -6.4858  -6.4808  -6.4793  -6.4788  -6.4503  -6.1722  -6.1372  -6.1327
    -6.1304  -6.1289  -6.1284  -6.1223  -6.1045  -6.1009  -6.0996  -6.0974
    -6.0955  -6.0458  -5.9372  -5.8883  -5.8852  -5.8848  -5.8841  -5.8809
    -5.8616  -5.5659  -5.5570  -5.5456  -5.4325  -5.4180  -5.4021  -5.4014
    -5.3999  -5.3989  -5.3984  -5.3927  -5.2617  -5.2488  -5.2465  -5.2444
    -5.2429  -5.2289  -5.2161  -5.2137  -5.1288  -5.1142  -5.1028  -5.0978
    -5.0972  -5.0970  -5.0964  -5.0883  -5.0150  -5.0126  -5.0091  -5.0063
    -5.0045  -5.0030  -4.9569  -4.9503  -4.9463  -4.9460  -4.9423  -4.9218
    -4.8511  -4.7738  -4.7681  -4.7620  -4.7605  -4.7553  -4.7476  -4.7468
    -4.7398  -4.7377  -4.7372  -4.7361  -4.7149  -4.5507  -4.5489  -4.5453
    -4.3913  -4.3872  -4.3821  -4.3804  -4.3794  -4.3773  -4.2857  -4.0957
    -4.0886  -4.0840  -4.0832  -4.0814  -4.0792  -3.9428  -3.9156  -3.9135
    -3.9130  -3.8996  -3.8850  -3.8442  -3.8365  -3.8303  -3.8206  -3.7670
    -3.7604  -3.7595  -3.7585  -3.7557  -3.7536  -3.7312  -3.7284  -3.7237
    -3.7233  -3.7224  -3.7209  -3.7192  -3.7053  -3.5439  -3.5216  -3.5197
    -3.5186  -3.5153  -3.5000  -3.3846  -3.3739  -3.3535  -3.3343  -3.2551
    -3.2528  -3.2476  -3.1038  -3.0995  -3.0908  -3.0902  -3.0889  -3.0881
    -3.0711  -3.0705  -3.0329  -2.8938  -2.8794  -2.8778  -2.8768  -2.8741
    -2.8637  -2.7112  -2.6189  -2.6178  -2.6147  -2.5564  -2.5241  -2.5230
    -2.5208  -2.0034  -1.9855  -1.9815  -1.9804  -1.9607  -1.8699  -0.6055
    -0.6026  -0.6009  -0.5990  -0.5958  -0.5881  -0.4156  -0.3249  -0.3200
    -0.2882   0.5411   0.5446

          k = 0.0000-0.0501 0.0000 (101872 PWs)   bands (ev):

  -106.4590-106.3890-106.3717-106.3694-106.3651-106.3639-106.3624-106.3616
  -106.3607-106.3592-106.3590-106.3589-106.3574-106.3569-106.3561-106.3558
  -106.3552-106.3547-106.3544-106.3538-106.3535-106.3527-106.3525-106.3523
  -106.3520-106.3517-106.3511-106.3507-106.3506-106.3504-106.3502-106.3490
   -57.8359 -57.8348 -57.8002 -57.7968 -57.7956 -57.7918 -57.7886 -57.7859
   -57.7833 -57.7831 -57.7816 -57.7804 -57.7790 -57.7725 -57.7696 -57.7680
   -57.7663 -57.7616 -57.7591 -57.7579 -57.7527 -57.7508 -57.7493 -57.7478
   -57.7420 -57.7375 -57.7255 -57.7207 -57.7186 -57.7145 -57.7049 -57.7031
   -57.6990 -57.6985 -57.6983 -57.6958 -57.6904 -57.6890 -57.6855 -57.6843
   -57.6830 -57.6818 -57.6811 -57.6800 -57.6790 -57.6782 -57.6727 -57.6687
   -57.6680 -57.6667 -57.6659 -57.6647 -57.6625 -57.6601 -57.6594 -57.6593
   -57.6569 -57.6552 -57.6514 -57.6490 -57.6465 -57.6462 -57.6454 -57.6347
   -57.6315 -57.5786 -57.5723 -57.5673 -57.5608 -57.5536 -57.5472 -57.5464
   -57.5419 -57.5402 -57.5388 -57.5328 -57.5282 -57.5275 -57.5251 -57.5217
   -57.5162 -57.5052 -57.5040 -57.5032 -57.4980 -57.4974 -57.4965 -57.4953
   -57.4942 -57.4930 -57.4925 -57.4915 -57.4897 -57.4889 -57.4887 -57.4865
   -24.1064 -23.5265 -21.9990 -21.5671 -16.5376 -14.1727 -12.4431 -11.3025
    -9.5738  -8.8872  -8.8706  -8.4575  -8.3318  -8.0832  -8.0403  -7.9764
    -7.6489  -7.5134  -7.5087  -7.4404  -7.2913  -7.2887  -7.1034  -7.0961
    -7.0956  -7.0932  -7.0130  -7.0075  -6.9487  -6.9415  -6.9388  -6.9380
    -6.8832  -6.8163  -6.8142  -6.8111  -6.8067  -6.7707  -6.7637  -6.4952
    -6.4924  -6.4888  -6.4866  -6.4583  -6.4098  -6.4077  -6.3971  -6.3955
    -6.3656  -6.3549  -6.3161  -6.3132  -6.1798  -6.1714  -6.1357  -6.1080
    -6.1071  -6.1037  -6.0944  -6.0869  -6.0455  -5.9247  -5.7683  -5.7601
    -5.6103  -5.6066  -5.4764  -5.4728  -5.4617  -5.4489  -5.4437  -5.4397
    -5.4285  -5.4211  -5.4089  -5.3741  -5.3684  -5.3404  -5.3362  -5.3317
    -5.3242  -5.3220  -5.3195  -5.2188  -5.2150  -5.2124  -5.1998  -5.1939
    -5.1882  -5.1310  -5.1232  -5.1192  -5.0998  -4.9265  -4.9257  -4.9206
[...]
   -57.5850 -57.5844 -57.5815 -57.5799 -57.5793 -57.5786 -57.5742 -57.5690
   -57.5680 -57.5670 -57.5657 -57.5608 -57.5597 -57.5593 -57.5553 -57.5533
   -57.5448 -57.5428 -57.5387 -57.5350 -57.5287 -57.5249 -57.5213 -57.5149
   -57.5078 -57.5049 -57.5020 -57.4989 -57.4978 -57.4952 -57.4905 -57.4888
   -57.4769 -57.4680 -57.4643 -57.4629 -57.4623 -57.4606 -57.4593 -57.4576
   -57.4568 -57.4532 -57.4519 -57.4514 -57.4489 -57.4480 -57.4478 -57.4456
   -23.8978 -23.6847 -21.5748 -21.3135 -16.6159 -14.3441 -12.5335 -11.4050
    -9.6002  -9.2594  -8.4200  -8.3601  -8.3085  -8.0502  -8.0176  -7.9673
    -7.7892  -7.7010  -7.5235  -7.5188  -7.4469  -7.3856  -7.2581  -7.1604
    -7.1602  -7.1205  -7.0867  -7.0859  -7.0354  -6.8759  -6.8192  -6.7756
    -6.7733  -6.7675  -6.7656  -6.6695  -6.6692  -6.6683  -6.6674  -6.5603
    -6.5595  -6.5474  -6.4934  -6.4248  -6.4221  -6.3948  -6.3936  -6.2731
    -6.2719  -6.2392  -6.2383  -6.1799  -6.1694  -6.1647  -6.1591  -6.1575
    -6.1192  -6.1160  -6.0934  -6.0373  -6.0342  -5.8413  -5.7570  -5.7509
    -5.6073  -5.5333  -5.5311  -5.4876  -5.4768  -5.4613  -5.4510  -5.4258
    -5.3244  -5.2972  -5.2940  -5.2795  -5.2740  -5.2564  -5.2415  -5.2317
    -5.2062  -5.2031  -5.1945  -5.1471  -5.1449  -5.1163  -5.1154  -5.0995
    -5.0901  -5.0876  -5.0867  -5.0697  -5.0187  -5.0176  -4.9857  -4.9837
    -4.9712  -4.9464  -4.9417  -4.8681  -4.7320  -4.7300  -4.7268  -4.7236
    -4.7208  -4.7159  -4.6648  -4.6626  -4.6397  -4.6382  -4.5845  -4.5835
    -4.5792  -4.5727  -4.5604  -4.5510  -4.5494  -4.5416  -4.4633  -4.4517
    -4.4114  -4.4083  -4.3740  -4.3729  -4.3273  -4.3235  -4.2055  -4.1370
    -4.1339  -4.0626  -3.9178  -3.8831  -3.8690  -3.8360  -3.8306  -3.8276
    -3.8187  -3.7898  -3.7816  -3.7605  -3.7330  -3.7223  -3.6922  -3.6660
    -3.6629  -3.6610  -3.6569  -3.6172  -3.6084  -3.5700  -3.5486  -3.5423
    -3.5304  -3.5284  -3.4487  -3.4426  -3.4144  -3.4104  -3.3990  -3.3849
    -3.3804  -3.3258  -3.3188  -3.3159  -3.3153  -3.2808  -3.1936  -3.1911
    -3.1670  -3.1511  -3.0639  -3.0262  -3.0216  -3.0165  -3.0154  -2.9795
    -2.9739  -2.9646  -2.9626  -2.8889  -2.8839  -2.8273  -2.8230  -2.7809
    -2.7770  -2.7561  -2.7549  -2.6431  -2.6144  -2.5900  -2.5871  -2.5459
    -2.4340  -2.2930  -2.0355  -1.9995  -1.6481  -1.6452  -1.5221  -1.5165
    -1.4837  -1.2755  -0.5415  -0.5387  -0.4556  -0.4522  -0.0845   0.1354
     0.1588   0.6534   0.6913

          k = 0.0433-0.0250 0.0000 (101872 PWs)   bands (ev):

  -106.3506-106.2985-106.2964-106.2957-106.2927-106.2919-106.2908-106.2903
  -106.2885-106.2876-106.2867-106.2864-106.2862-106.2854-106.2850-106.2845
  -106.2843-106.2838-106.2833-106.2830-106.2825-106.2823-106.2818-106.2814
  -106.2812-106.2804-106.2802-106.2800-106.2795-106.2790-106.2786-106.2761
   -57.7341 -57.7288 -57.7166 -57.7150 -57.7139 -57.7064 -57.7049 -57.7020
   -57.7017 -57.7003 -57.6996 -57.6994 -57.6950 -57.6895 -57.6860 -57.6849
   -57.6818 -57.6787 -57.6771 -57.6762 -57.6691 -57.6678 -57.6667 -57.6663
   -57.6595 -57.6560 -57.6393 -57.6348 -57.6291 -57.6259 -57.6224 -57.6189
   -57.6187 -57.6179 -57.6158 -57.6153 -57.6061 -57.6054 -57.6021 -57.6009
   -57.5997 -57.5986 -57.5982 -57.5951 -57.5946 -57.5937 -57.5889 -57.5844
   -57.5841 -57.5821 -57.5814 -57.5804 -57.5796 -57.5782 -57.5777 -57.5759
   -57.5736 -57.5734 -57.5667 -57.5656 -57.5649 -57.5613 -57.5600 -57.5479
   -57.5467 -57.5464 -57.5409 -57.5352 -57.5297 -57.5181 -57.5170 -57.5148
   -57.5121 -57.5094 -57.5041 -57.4987 -57.4975 -57.4957 -57.4904 -57.4848
   -57.4736 -57.4710 -57.4688 -57.4624 -57.4615 -57.4603 -57.4585 -57.4563
   -57.4544 -57.4538 -57.4531 -57.4520 -57.4501 -57.4478 -57.4471 -57.4455
   -23.8978 -23.6847 -21.5748 -21.3135 -16.6159 -14.3441 -12.5334 -11.4050
    -9.5999  -8.9147  -8.9076  -8.3856  -8.3112  -8.0940  -8.0824  -7.9827
    -7.7005  -7.4683  -7.4651  -7.3886  -7.2982  -7.2952  -7.1412  -7.1381
    -7.1377  -7.1361  -6.9801  -6.9770  -6.9447  -6.9432  -6.9427  -6.9416
    -6.8737  -6.7984  -6.7957  -6.7946  -6.7927  -6.7389  -6.7362  -6.4955
    -6.4669  -6.4647  -6.4623  -6.4611  -6.4533  -6.4479  -6.4464  -6.4454
    -6.4066  -6.4008  -6.3666  -6.3637  -6.2153  -6.2100  -6.1342  -6.1321
    -6.1297  -6.1287  -6.1169  -6.1147  -6.0924  -5.8458  -5.7319  -5.7274
    -5.5891  -5.5805  -5.4498  -5.4234  -5.4216  -5.3809  -5.3791  -5.3737
    -5.3702  -5.3654  -5.3615  -5.3222  -5.3171  -5.2763  -5.2710  -5.2699
    -5.2696  -5.2690  -5.2670  -5.2123  -5.2043  -5.1459  -5.1433  -5.1142
    -5.1129  -5.1071  -5.1050  -5.1035  -5.0943  -4.8846  -4.8740  -4.8715
    -4.8695  -4.8669  -4.8623  -4.8609  -4.8288  -4.8230  -4.8209  -4.8191
    -4.7744  -4.7706  -4.7298  -4.7217  -4.5849  -4.5830  -4.5269  -4.5211
    -4.5008  -4.4976  -4.4472  -4.4466  -4.4441  -4.4419  -4.4125  -4.4090
    -4.2499  -4.2460  -4.1431  -4.1349  -4.1152  -4.0911  -4.0876  -4.0841
    -4.0818  -4.0783  -4.0284  -3.9067  -3.8975  -3.7992  -3.7943  -3.7873
    -3.7850  -3.7833  -3.7804  -3.7568  -3.6819  -3.6695  -3.6673  -3.6637
    -3.6630  -3.6606  -3.6525  -3.6287  -3.5151  -3.5131  -3.4788  -3.4735
    -3.3736  -3.3675  -3.3652  -3.3625  -3.3168  -3.3139  -3.3114  -3.3098
    -3.2382  -3.2357  -3.2243  -3.2138  -3.2124  -3.2088  -3.1957  -3.1930
    -3.0973  -3.0907  -3.0487  -3.0412  -3.0152  -3.0127  -3.0108  -3.0078
    -2.9887  -2.9680  -2.9637  -2.9459  -2.9437  -2.8772  -2.8748  -2.8565
    -2.8533  -2.7786  -2.7533  -2.7509  -2.7494  -2.7428  -2.6981  -2.6090
    -2.6043  -2.6029  -2.6020  -2.5245  -2.4322  -2.0732  -2.0538  -0.8811
    -0.8632  -0.8534  -0.8264  -0.5442  -0.5431  -0.5393  -0.5350  -0.4308
    -0.4065   0.5793   0.6275

          k =-0.0433-0.0250 0.0000 (101872 PWs)   bands (ev):

  -106.3506-106.2985-106.2964-106.2956-106.2930-106.2920-106.2905-106.2902
  -106.2881-106.2875-106.2871-106.2866-106.2860-106.2858-106.2851-106.2846
  -106.2839-106.2838-106.2833-106.2827-106.2826-106.2822-106.2818-106.2814
  -106.2812-106.2806-106.2803-106.2800-106.2793-106.2790-106.2786-106.2761
   -57.7346 -57.7292 -57.7152 -57.7148 -57.7137 -57.7052 -57.7039 -57.7039
   -57.7015 -57.7005 -57.7003 -57.6991 -57.6942 -57.6888 -57.6869 -57.6863
   -57.6832 -57.6780 -57.6769 -57.6765 -57.6689 -57.6678 -57.6672 -57.6663
   -57.6583 -57.6561 -57.6379 -57.6352 -57.6293 -57.6275 -57.6227 -57.6200
   -57.6182 -57.6169 -57.6155 -57.6148 -57.6061 -57.6058 -57.6016 -57.6013
   -57.6001 -57.5977 -57.5974 -57.5969 -57.5937 -57.5930 -57.5884 -57.5852
   -57.5832 -57.5829 -57.5818 -57.5808 -57.5803 -57.5779 -57.5772 -57.5764
   -57.5735 -57.5725 -57.5684 -57.5650 -57.5639 -57.5611 -57.5605 -57.5489
   -57.5457 -57.5453 -57.5426 -57.5359 -57.5279 -57.5181 -57.5164 -57.5152
   -57.5120 -57.5089 -57.5062 -57.4997 -57.4978 -57.4952 -57.4873 -57.4845
   -57.4777 -57.4705 -57.4653 -57.4631 -57.4623 -57.4601 -57.4592 -57.4558
   -57.4545 -57.4542 -57.4531 -57.4521 -57.4489 -57.4480 -57.4477 -57.4454
   -23.8978 -23.6847 -21.5748 -21.3135 -16.6159 -14.3441 -12.5335 -11.4050
    -9.6000  -8.9162  -8.9057  -8.3860  -8.3114  -8.0979  -8.0801  -7.9803
    -7.7007  -7.4707  -7.4628  -7.3892  -7.2969  -7.2963  -7.1406  -7.1384
    -7.1376  -7.1366  -6.9803  -6.9767  -6.9455  -6.9439  -6.9419  -6.9413
    -6.8740  -6.7975  -6.7962  -6.7949  -6.7927  -6.7386  -6.7363  -6.4950
    -6.4655  -6.4652  -6.4623  -6.4612  -6.4527  -6.4509  -6.4446  -6.4445
    -6.4063  -6.4003  -6.3661  -6.3643  -6.2165  -6.2112  -6.1391  -6.1320
    -6.1311  -6.1286  -6.1164  -6.1138  -6.0908  -5.8371  -5.7306  -5.7276
    -5.5863  -5.5844  -5.4532  -5.4237  -5.4224  -5.3828  -5.3769  -5.3754
    -5.3683  -5.3649  -5.3561  -5.3214  -5.3179  -5.2785  -5.2717  -5.2706
    -5.2700  -5.2682  -5.2678  -5.2115  -5.2084  -5.1469  -5.1423  -5.1156
    -5.1112  -5.1076  -5.1051  -5.1040  -5.0925  -4.8862  -4.8732  -4.8722
    -4.8708  -4.8681  -4.8657  -4.8595  -4.8283  -4.8235  -4.8200  -4.8186
    -4.7755  -4.7693  -4.7291  -4.7223  -4.5848  -4.5802  -4.5281  -4.5197
    -4.4998  -4.4974  -4.4493  -4.4455  -4.4433  -4.4416  -4.4122  -4.4095
    -4.2519  -4.2435  -4.1467  -4.1362  -4.1185  -4.0928  -4.0854  -4.0825
    -4.0807  -4.0777  -4.0245  -3.9111  -3.8961  -3.8008  -3.7933  -3.7896
    -3.7858  -3.7835  -3.7820  -3.7580  -3.6749  -3.6684  -3.6658  -3.6648
    -3.6622  -3.6586  -3.6482  -3.6351  -3.5184  -3.5109  -3.4800  -3.4699
    -3.3717  -3.3671  -3.3659  -3.3642  -3.3187  -3.3146  -3.3101  -3.3086
    -3.2396  -3.2348  -3.2231  -3.2149  -3.2114  -3.2105  -3.1965  -3.1921
    -3.0973  -3.0915  -3.0489  -3.0411  -3.0169  -3.0137  -3.0097  -3.0073
    -2.9852  -2.9702  -2.9623  -2.9455  -2.9434  -2.8783  -2.8738  -2.8574
    -2.8519  -2.7770  -2.7542  -2.7521  -2.7488  -2.7379  -2.6988  -2.6111
    -2.6045  -2.6029  -2.6018  -2.5337  -2.4309  -2.0793  -2.0407  -0.8808
    -0.8615  -0.8553  -0.8270  -0.5452  -0.5407  -0.5385  -0.5377  -0.4278
    -0.4118   0.5853   0.6186

          k =-0.0217 0.0375 0.0000 (101920 PWs)   bands (ev):

  -106.3506-106.2985-106.2965-106.2955-106.2930-106.2919-106.2906-106.2900
  -106.2887-106.2875-106.2868-106.2865-106.2862-106.2855-106.2850-106.2845
  -106.2842-106.2836-106.2834-106.2830-106.2827-106.2823-106.2817-106.2814
  -106.2812-106.2804-106.2801-106.2800-106.2795-106.2790-106.2786-106.2761
   -57.7332 -57.7305 -57.7179 -57.7126 -57.7120 -57.7085 -57.7054 -57.7028
   -57.6999 -57.6989 -57.6974 -57.6966 -57.6934 -57.6917 -57.6899 -57.6893
   -57.6865 -57.6801 -57.6780 -57.6774 -57.6702 -57.6684 -57.6641 -57.6554
   -57.6504 -57.6472 -57.6431 -57.6419 -57.6385 -57.6373 -57.6262 -57.6179
   -57.6170 -57.6139 -57.6107 -57.6095 -57.6068 -57.6030 -57.6021 -57.6015
   -57.5997 -57.5985 -57.5981 -57.5950 -57.5915 -57.5908 -57.5896 -57.5894
   -57.5876 -57.5851 -57.5817 -57.5809 -57.5786 -57.5779 -57.5761 -57.5746
   -57.5723 -57.5709 -57.5697 -57.5692 -57.5664 -57.5613 -57.5526 -57.5520
   -57.5464 -57.5457 -57.5412 -57.5362 -57.5261 -57.5232 -57.5172 -57.5135
   -57.5101 -57.5064 -57.5052 -57.5041 -57.4965 -57.4936 -57.4905 -57.4845
   -57.4747 -57.4715 -57.4663 -57.4646 -57.4618 -57.4587 -57.4582 -57.4565
   -57.4554 -57.4542 -57.4524 -57.4519 -57.4499 -57.4480 -57.4472 -57.4454
   -23.8978 -23.6847 -21.5748 -21.3135 -16.6159 -14.3441 -12.5334 -11.4050
    -9.6000  -9.0240  -8.5957  -8.5778  -8.3733  -8.3096  -7.9979  -7.7032
    -7.5681  -7.5366  -7.5301  -7.3892  -7.2639  -7.2619  -7.1890  -7.1882
    -7.1725  -7.1680  -7.0608  -6.9850  -6.9830  -6.9705  -6.9679  -6.9162
    -6.8777  -6.8681  -6.8055  -6.8036  -6.6471  -6.6435  -6.6175  -6.6145
    -6.5153  -6.5116  -6.4938  -6.4873  -6.4649  -6.4634  -6.3999  -6.3942
    -6.3392  -6.3380  -6.3254  -6.3202  -6.2835  -6.2822  -6.2758  -6.1335
    -6.0965  -6.0458  -6.0420  -6.0266  -5.9147  -5.9116  -5.8423  -5.6277
    -5.6223  -5.5802  -5.5458  -5.5438  -5.4504  -5.4291  -5.4277  -5.4019
    -5.3975  -5.3948  -5.3880  -5.3157  -5.3119  -5.3001  -5.2959  -5.2872
    -5.2851  -5.2813  -5.2559  -5.2496  -5.2189  -5.2142  -5.1954  -5.1904
    -5.1461  -5.0624  -5.0528  -5.0513  -5.0014  -4.9301  -4.9146  -4.9067
    -4.8705  -4.8469  -4.8282  -4.8015  -4.7928  -4.7885  -4.7480  -4.6621
    -4.6604  -4.6277  -4.6255  -4.6047  -4.6036  -4.5804  -4.5784  -4.5442
    -4.5167  -4.5147  -4.4403  -4.4361  -4.4303  -4.4272  -4.3967  -4.3904
    -4.2733  -4.2662  -4.1679  -4.1442  -4.1337  -4.1271  -4.1265  -4.0732
    -4.0289  -4.0117  -4.0086  -3.9776  -3.9382  -3.9252  -3.9130  -3.8116
    -3.7763  -3.7349  -3.7225  -3.7183  -3.6701  -3.6657  -3.6630  -3.6250
    -3.6147  -3.6120  -3.6038  -3.5894  -3.5367  -3.5337  -3.5317  -3.5294
    -3.5039  -3.5005  -3.4424  -3.3357  -3.3248  -3.3109  -3.3053  -3.2968
    -3.2930  -3.2640  -3.2631  -3.2369  -3.2206  -3.2191  -3.1920  -3.1861
    -3.1145  -3.1110  -3.0986  -3.0934  -3.0686  -3.0347  -3.0284  -3.0257
    -3.0236  -2.9851  -2.9525  -2.9484  -2.9120  -2.9041  -2.9004  -2.8616
    -2.8177  -2.8139  -2.7922  -2.7414  -2.7395  -2.7220  -2.7152  -2.6143
    -2.5620  -2.4398  -2.4344  -2.3742  -1.8075  -1.8042  -1.7158  -1.7133
    -1.5891  -1.5667  -0.8785  -0.7584  -0.7395   0.1738   0.1880   0.3025
     0.3206   0.4036   0.7194

          k = 0.0433 0.0000 0.0000 (101920 PWs)   bands (ev):

  -106.3506-106.2985-106.2964-106.2956-106.2928-106.2920-106.2906-106.2902
  -106.2883-106.2876-106.2867-106.2865-106.2861-106.2857-106.2850-106.2845
  -106.2841-106.2836-106.2833-106.2830-106.2825-106.2822-106.2818-106.2815
  -106.2811-106.2805-106.2803-106.2800-106.2794-106.2790-106.2786-106.2761
   -57.7343 -57.7297 -57.7178 -57.7124 -57.7108 -57.7084 -57.7052 -57.7032
   -57.6999 -57.6992 -57.6970 -57.6962 -57.6951 -57.6918 -57.6897 -57.6885
   -57.6869 -57.6803 -57.6780 -57.6774 -57.6708 -57.6687 -57.6643 -57.6550
   -57.6504 -57.6473 -57.6426 -57.6419 -57.6385 -57.6381 -57.6251 -57.6183
   -57.6162 -57.6133 -57.6113 -57.6098 -57.6073 -57.6038 -57.6023 -57.6012
   -57.5994 -57.5983 -57.5974 -57.5944 -57.5915 -57.5908 -57.5892 -57.5889
   -57.5880 -57.5852 -57.5828 -57.5813 -57.5788 -57.5782 -57.5760 -57.5745
   -57.5720 -57.5704 -57.5700 -57.5694 -57.5662 -57.5612 -57.5526 -57.5522
   -57.5462 -57.5454 -57.5421 -57.5358 -57.5269 -57.5213 -57.5176 -57.5138
   -57.5106 -57.5066 -57.5050 -57.5040 -57.4971 -57.4928 -57.4906 -57.4840
   -57.4758 -57.4712 -57.4662 -57.4638 -57.4618 -57.4597 -57.4577 -57.4567
   -57.4551 -57.4541 -57.4533 -57.4511 -57.4498 -57.4480 -57.4473 -57.4454
   -23.8978 -23.6847 -21.5748 -21.3135 -16.6159 -14.3441 -12.5335 -11.4050
    -9.6000  -9.0241  -8.5957  -8.5778  -8.3735  -8.3094  -7.9979  -7.7026
    -7.5679  -7.5364  -7.5311  -7.3894  -7.2636  -7.2620  -7.1887  -7.1884
    -7.1719  -7.1686  -7.0607  -6.9853  -6.9833  -6.9696  -6.9688  -6.9166
    -6.8792  -6.8657  -6.8059  -6.8035  -6.6462  -6.6439  -6.6174  -6.6144
    -6.5142  -6.5117  -6.4939  -6.4901  -6.4640  -6.4630  -6.3988  -6.3952
    -6.3382  -6.3377  -6.3258  -6.3205  -6.2845  -6.2822  -6.2752  -6.1342
    -6.0960  -6.0458  -6.0425  -6.0268  -5.9167  -5.9111  -5.8375  -5.6286
    -5.6253  -5.5756  -5.5456  -5.5444  -5.4528  -5.4302  -5.4272  -5.4018
    -5.3979  -5.3923  -5.3888  -5.3165  -5.3128  -5.2998  -5.2949  -5.2866
    -5.2843  -5.2810  -5.2555  -5.2514  -5.2190  -5.2143  -5.1946  -5.1905
    -5.1464  -5.0623  -5.0539  -5.0513  -5.0024  -4.9299  -4.9149  -4.9113
    -4.8673  -4.8470  -4.8282  -4.8000  -4.7929  -4.7887  -4.7471  -4.6624
    -4.6599  -4.6282  -4.6262  -4.6041  -4.6022  -4.5797  -4.5787  -4.5431
    -4.5211  -4.5161  -4.4403  -4.4366  -4.4288  -4.4269  -4.3956  -4.3915
    -4.2689  -4.2668  -4.1630  -4.1460  -4.1353  -4.1335  -4.1257  -4.0573
    -4.0291  -4.0183  -4.0065  -3.9892  -3.9386  -3.9256  -3.9102  -3.8122
    -3.7776  -3.7354  -3.7242  -3.7142  -3.6673  -3.6659  -3.6574  -3.6234
    -3.6151  -3.6113  -3.6080  -3.5926  -3.5391  -3.5351  -3.5321  -3.5272
    -3.5021  -3.5001  -3.4427  -3.3347  -3.3261  -3.3115  -3.3054  -3.2956
    -3.2941  -3.2640  -3.2632  -3.2360  -3.2214  -3.2192  -3.1920  -3.1858
    -3.1134  -3.1120  -3.0967  -3.0939  -3.0695  -3.0349  -3.0298  -3.0249
    -3.0236  -2.9848  -2.9517  -2.9488  -2.9134  -2.9025  -2.9010  -2.8624
    -2.8206  -2.8147  -2.7887  -2.7405  -2.7392  -2.7223  -2.7161  -2.6163
    -2.5608  -2.4431  -2.4308  -2.3731  -1.8077  -1.8041  -1.7152  -1.7142
    -1.5855  -1.5699  -0.8783  -0.7525  -0.7454   0.1753   0.1857   0.3072
     0.3163   0.4056   0.7184

     the Fermi energy is    -1.2431 ev

!    total energy              =   -8984.21962539 Ry
     Harris-Foulkes estimate   =   -8984.21962474 Ry
     estimated scf accuracy    <       0.00000032 Ry

     The total energy is the sum of the following terms:

     one-electron contribution =  -83114.48119282 Ry
     hartree contribution      =   41383.43213416 Ry
     xc contribution           =    -862.03702864 Ry
     ewald contribution        =   33608.88032720 Ry
     smearing contrib. (-TS)   =      -0.01386529 Ry

     convergence has been achieved in  16 iterations

     Forces acting on atoms (Ry/au):


     negative rho (up, down):  3.914E-03 0.000E+00
     atom    1 type  1   force =    -0.00001427   -0.00006682   -0.02406369
     atom    2 type  1   force =    -0.00006397   -0.00005756    0.02393608
     atom    3 type  1   force =     0.00006509   -0.00004849   -0.02388037
     atom    4 type  1   force =    -0.00012950    0.00004407    0.02402088
     atom    5 type  1   force =    -0.00015522    0.00005592   -0.02402756
     atom    6 type  1   force =    -0.00007012   -0.00006291    0.02423369
     atom    7 type  1   force =    -0.00001576   -0.00001222   -0.02400874
     atom    8 type  1   force =    -0.00000927   -0.00000277    0.02391609
     atom    9 type  1   force =     0.00000933    0.00001961   -0.02401949
     atom   10 type  1   force =     0.00001813    0.00009110    0.02414198
     atom   11 type  1   force =    -0.00016516    0.00015148   -0.02385690
     atom   12 type  1   force =     0.00010839   -0.00330177    0.02063708
     atom   13 type  1   force =     0.00002489   -0.00020661   -0.02480159
     atom   14 type  1   force =    -0.00600864    0.00279957    0.01506934
     atom   15 type  1   force =     0.00005102   -0.00002641   -0.02402278
     atom   16 type  1   force =     0.00004961    0.00011673    0.02419889
     atom   17 type  1   force =    -0.00009344    0.00004839   -0.02404195
     atom   18 type  1   force =     0.00003160    0.00001155    0.02393547
     atom   19 type  1   force =     0.00013640    0.00006956   -0.02370694
     atom   20 type  1   force =     0.00029282   -0.00029116    0.02353643
     atom   21 type  1   force =    -0.00005893    0.00006745   -0.02390063
     atom   22 type  1   force =     0.00308422    0.00159501    0.02021721
     atom   23 type  1   force =     0.00019703   -0.00000270   -0.02457560
     atom   24 type  1   force =    -0.00010853    0.00041294    0.02349611
     atom   25 type  1   force =     0.00010118    0.00001060   -0.02395095
     atom   26 type  1   force =     0.00001872   -0.00000078    0.02394130
     atom   27 type  1   force =    -0.00004708    0.00007563   -0.02435900
     atom   28 type  1   force =    -0.00003013   -0.00003516    0.02393825
     atom   29 type  1   force =     0.00004944   -0.00018422   -0.02326307
     atom   30 type  1   force =     0.00000165   -0.00001907    0.02398314
     atom   31 type  1   force =    -0.00020765    0.00006429   -0.02324399
     atom   32 type  1   force =     0.00001703    0.00007005    0.02382074
     atom   33 type  2   force =     0.00472415   -0.00251820    0.00600752
     atom   34 type  2   force =    -0.00008325   -0.00666020   -0.00820427
     atom   35 type  2   force =     0.00560358   -0.00017567   -0.01079980
     atom   36 type  2   force =     0.00468821   -0.00747416    0.02610115
     atom   37 type  3   force =     0.00247349   -0.00067793    0.00037294
     atom   38 type  3   force =    -0.00160808    0.05731959   -0.02007473
     atom   39 type  3   force =     0.00918255   -0.00217756    0.02121371
     atom   40 type  3   force =    -0.00841002   -0.00886048   -0.02684985
     atom   41 type  3   force =     0.00132599   -0.05721494    0.03373793
     atom   42 type  4   force =    -0.00227799   -0.00246703    0.00064903
     atom   43 type  4   force =    -0.00158324    0.00148596    0.00379917
     atom   44 type  4   force =    -0.00094156   -0.00173934   -0.00710883
     atom   45 type  4   force =     0.00176852    0.00809102   -0.00578510
     atom   46 type  4   force =    -0.01344836    0.00613029   -0.00392119
     atom   47 type  4   force =     0.00150714    0.01555336    0.00756290

     Total force =     0.170607     Total SCF correction =     0.001323
 !ASE

     Writing output data file calc.save
     Check: negative starting charge=   -0.002320
     NEW-OLD atomic charge density approx. for the potential
     Check: negative starting charge=   -0.002315

     negative rho (up, down):  3.978E-03 0.000E+00
