  python dir          : /gpfs/pace1/project/chbe-medford/medford-share/gits/frozen/ben_espresso_8_24_2017/espresso
  espresso dir        : /nv/hp22/amedford6/medford-shared/builds/espresso/5.1.r11289-pybeef/intel-16.0+mvapich2-2.2+mkl-11.3/espresso-5.1.r11289-pybeef/bin
  pseudo dir          : /gpfs/pace1/project/chbe-medford/medford-share/data/pseudos/SSSP_eff_PBE
  ase-espresso py git : GITVERSION



     Program PWSCF v.5.1rc2 starts on  9Feb2019 at 22:47:46 

     This program is part of the open-source Quantum ESPRESSO suite
     for quantum simulation of materials; please cite
         "P. Giannozzi et al., J. Phys.:Condens. Matter 21 395502 (2009);
          URL http://www.quantum-espresso.org", 
     in publications or presentations arising from this work. More details at
     http://www.quantum-espresso.org/quote

     Parallel version (MPI), running on    12 processors
     R & G space division:  proc/nbgrp/npool/nimage =      12
     Reading input from pw.inp
     Message from routine read_cards :
     DEPRECATED: no units specified in CELL_PARAMETERS card

     Current dimensions of program PWSCF are:
     Max number of different atomic species (ntypx) = 10
     Max number of k-points (npk) =  40000
     Max angular momentum in pseudopotentials (lmaxx) =  3

     IMPORTANT: XC functional enforced from input :
     Exchange-correlation      = PBE ( 1  4  3  4 0)
     Any further DFT definition will be discarded
     Please, verify this is what you really want


     Subspace diagonalization in iterative solution of the eigenvalue problem:
     a serial algorithm will be used

 
     Parallelization info
     --------------------
     sticks:   dense  smooth     PW     G-vecs:    dense   smooth      PW
     Min         902     442    116               198592    67880    9174
     Max         903     443    117               198601    67900    9185
     Sum       10831    5305   1393              2383153   814635  110123
 


     bravais-lattice index     =            0
     lattice parameter (alat)  =       1.8897  a.u.
     unit-cell volume          =   23466.3494 (a.u.)^3
     number of atoms/cell      =           47
     number of atomic types    =            4
     number of electrons       =       658.00
     number of Kohn-Sham states=          339
     kinetic-energy cutoff     =      40.4243  Ry
     charge density cutoff     =     330.7439  Ry
     convergence threshold     =      7.3E-07
     mixing beta               =       0.2000
     number of iterations used =            8  local-TF  mixing
     Exchange-correlation      = PBE ( 1  4  3  4 0)
     nstep                     =           50


     celldm(1)=   1.889726  celldm(2)=   0.000000  celldm(3)=   0.000000
     celldm(4)=   0.000000  celldm(5)=   0.000000  celldm(6)=   0.000000

     crystal axes: (cart. coord. in units of alat)
               a(1) = (  11.534892   0.000000   0.000000 )  
               a(2) = (  -5.767446   9.989509   0.000000 )  
               a(3) = (   0.000000   0.000000  30.178057 )  

     reciprocal axes: (cart. coord. in units 2 pi/alat)
               b(1) = (  0.086693  0.050053  0.000000 )  
               b(2) = (  0.000000  0.100105  0.000000 )  
               b(3) = (  0.000000  0.000000  0.033137 )  


     PseudoPot. # 1 for Au read from file:
     /gpfs/pace1/project/chbe-medford/medford-share/data/pseudos/SSSP_eff_PBE/Au.UPF
     MD5 check sum: 1009843a674e36925f098327e430af60
     Pseudo is Norm-conserving, Zval = 19.0
     Generated using ONCVPSP code by D. R. Hamann
     Using radial grid of  602 points,  8 beta functions with: 
                l(1) =   0
                l(2) =   0
                l(3) =   1
                l(4) =   1
                l(5) =   2
                l(6) =   2
                l(7) =   3
                l(8) =   3

     PseudoPot. # 2 for O  read from file:
     /gpfs/pace1/project/chbe-medford/medford-share/data/pseudos/SSSP_eff_PBE/O.UPF
     MD5 check sum: 734c27235a0248c51dbae37a1fbe46ec
     Pseudo is Ultrasoft + core correction, Zval =  6.0
     Generated by new atomic code, or converted to UPF format
     Using radial grid of  737 points,  5 beta functions with: 
                l(1) =   0
                l(2) =   0
                l(3) =   1
                l(4) =   1
                l(5) =   2
     Q(r) pseudized with  8 coefficients,  rinner =    0.900   0.900   0.900
                                                       0.900   0.900

     PseudoPot. # 3 for C  read from file:
     /gpfs/pace1/project/chbe-medford/medford-share/data/pseudos/SSSP_eff_PBE/C.UPF
     MD5 check sum: d1aef80898a10debaa0f26306b886e00
     Pseudo is Ultrasoft + core correction, Zval =  4.0
     Generated by new atomic code, or converted to UPF format
     Using radial grid of  721 points,  4 beta functions with: 
                l(1) =   0
                l(2) =   0
                l(3) =   1
                l(4) =   1
     Q(r) pseudized with  8 coefficients,  rinner =    1.100   1.100   1.100


     PseudoPot. # 4 for  H read from file:
     /gpfs/pace1/project/chbe-medford/medford-share/data/pseudos/SSSP_eff_PBE/H.UPF
     MD5 check sum: 36633979392af7100e6f6632747262d3
     Pseudo is Ultrasoft, Zval =  1.0
     Generated using "atomic" code by A. Dal Corso  v.5.0.99 svn rev. 10869
     Using radial grid of  929 points,  2 beta functions with: 
                l(1) =   0
                l(2) =   0
     Q(r) pseudized with 0 coefficients 


     atomic species   valence    mass     pseudopotential
        Au1           19.00   196.96650     Au( 1.00)
        O1             6.00    15.99940     O ( 1.00)
        C1             4.00    12.01100     C ( 1.00)
        H1             1.00     1.00794      H( 1.00)

     No symmetry found



   Cartesian axes

     site n.     atom                  positions (alat units)
         1           Au1 tau(   1) = (   0.0000000   0.0000000  10.0000000  )
         2           Au1 tau(   2) = (   1.4418614   0.8324591  12.3545499  )
         3           Au1 tau(   3) = (  -1.4418614   2.4973773  10.0000000  )
         4           Au1 tau(   4) = (   0.0000000   3.3298364  12.3545499  )
         5           Au1 tau(   5) = (  -2.8837229   4.9947545  10.0000000  )
         6           Au1 tau(   6) = (  -1.4418614   5.8272136  12.3545499  )
         7           Au1 tau(   7) = (  -4.3255843   7.4921318  10.0000000  )
         8           Au1 tau(   8) = (  -2.8837229   8.3245909  12.3545499  )
         9           Au1 tau(   9) = (   2.8837229   0.0000000  10.0000000  )
        10           Au1 tau(  10) = (   4.3255843   0.8324591  12.3545499  )
        11           Au1 tau(  11) = (   1.4418614   2.4973773  10.0000000  )
        12           Au1 tau(  12) = (   2.8837229   3.3298364  12.3545499  )
        13           Au1 tau(  13) = (   0.0000000   4.9947545  10.0000000  )
        14           Au1 tau(  14) = (   1.4418614   5.8272136  12.3545499  )
        15           Au1 tau(  15) = (  -1.4418614   7.4921318  10.0000000  )
        16           Au1 tau(  16) = (   0.0000000   8.3245909  12.3545499  )
        17           Au1 tau(  17) = (   5.7674458   0.0000000  10.0000000  )
        18           Au1 tau(  18) = (   7.2093072   0.8324591  12.3545499  )
        19           Au1 tau(  19) = (   4.3255843   2.4973773  10.0000000  )
        20           Au1 tau(  20) = (   5.7674458   3.3298364  12.3545499  )
        21           Au1 tau(  21) = (   2.8837229   4.9947545  10.0000000  )
        22           Au1 tau(  22) = (   4.3255843   5.8272136  12.3545499  )
        23           Au1 tau(  23) = (   1.4418614   7.4921318  10.0000000  )
        24           Au1 tau(  24) = (   2.8837229   8.3245909  12.3545499  )
        25           Au1 tau(  25) = (   8.6511686   0.0000000  10.0000000  )
        26           Au1 tau(  26) = (  10.0930301   0.8324591  12.3545499  )
        27           Au1 tau(  27) = (   7.2093072   2.4973773  10.0000000  )
        28           Au1 tau(  28) = (   8.6511686   3.3298364  12.3545499  )
        29           Au1 tau(  29) = (   5.7674458   4.9947545  10.0000000  )
        30           Au1 tau(  30) = (   7.2093072   5.8272136  12.3545499  )
        31           Au1 tau(  31) = (   4.3255843   7.4921318  10.0000000  )
        32           Au1 tau(  32) = (   5.7674458   8.3245909  12.3545499  )
        33           O1  tau(  33) = (   1.4420000   5.8270000  14.8545499  )
        34           O1  tau(  34) = (   3.4550351   7.1065000  18.4298289  )
        35           O1  tau(  35) = (   0.6212300   5.4741000  16.9467345  )
        36           O1  tau(  36) = (   3.5212155   5.6599000  20.1780568  )
        37           C1  tau(  37) = (   3.0106743   5.2101000  16.4933734  )
        38           C1  tau(  38) = (   3.1782348   4.8346000  17.9391968  )
        39           C1  tau(  39) = (   1.5624576   5.5007000  16.1679885  )
        40           C1  tau(  40) = (   3.4000857   5.8716000  18.9810537  )
        41           C1  tau(  41) = (   3.1061491   3.5618000  18.3579407  )
        42           H1  tau(  42) = (   3.6242465   6.0783000  16.2323117  )
        43           H1  tau(  43) = (   3.3347627   4.3790000  15.8543111  )
        44           H1  tau(  44) = (   2.9320862   2.7552000  17.6524549  )
        45           H1  tau(  45) = (   3.2145197   3.2796000  19.3998440  )
        46           H1  tau(  46) = (   0.5135546   6.0307000  14.6124353  )
        47           H1  tau(  47) = (   3.6019563   7.8037000  19.1041040  )

     number of k points=     4  Fermi-Dirac smearing, width (Ry)=  0.0073
                       cart. coord. in units 2pi/alat
        k(    1) = (   0.0000000   0.0000000   0.0000000), wk =   0.5000000
        k(    2) = (   0.0000000  -0.0500525   0.0000000), wk =   0.5000000
        k(    3) = (   0.0433467  -0.0250263   0.0000000), wk =   0.5000000
        k(    4) = (  -0.0433467  -0.0250263   0.0000000), wk =   0.5000000

     Dense  grid:  2383153 G-vectors     FFT dimensions: ( 128, 128, 360)

     Smooth grid:   814635 G-vectors     FFT dimensions: (  90,  90, 240)

     Largest allocated arrays     est. size (Mb)     dimensions
        Kohn-Sham Wavefunctions        44.08 Mb     (    8521,  339)
        NL pseudopotentials           146.66 Mb     (    8521, 1128)
        Each V/rho on FFT grid          7.50 Mb     (  491520)
        Each G-vector array             1.52 Mb     (  198594)
        G-vector shells                 0.48 Mb     (   62916)
     Largest temporary arrays     est. size (Mb)     dimensions
        Auxiliary wavefunctions       176.31 Mb     (    8521, 1356)
        Each subspace H/S matrix       28.06 Mb     (    1356, 1356)
        Each <psi_i|beta_j> matrix      5.83 Mb     (    1128,  339)
        Arrays for rho mixing          60.00 Mb     (  491520,    8)

     Initial potential from superposition of free atoms
     Check: negative starting charge=   -0.002318

     starting charge  657.28107, renormalised to  658.00000

     negative rho (up, down):  2.320E-03 0.000E+00
     Starting wfc are   42 randomized atomic wfcs +  297 random wfc

     total cpu time spent up to now is       42.0 secs

     per-process dynamical memory:   537.4 Mb

     Self-consistent Calculation

     iteration #  1     ecut=    40.42 Ry     beta=0.20
     Davidson diagonalization with overlap
     ethr =  1.00E-02,  avg # of iterations = 12.0

     Threshold (ethr) on eigenvalues was too large:
     Diagonalizing with lowered threshold

     Davidson diagonalization with overlap
     ethr =  6.23E-04,  avg # of iterations =  1.8

     negative rho (up, down):  7.607E-05 0.000E+00

     total cpu time spent up to now is      526.1 secs

     total energy              =   -8984.49792425 Ry
     Harris-Foulkes estimate   =   -8984.82872963 Ry
     estimated scf accuracy    <       4.09560049 Ry

     iteration #  2     ecut=    40.42 Ry     beta=0.20
     Davidson diagonalization with overlap
     ethr =  6.22E-04,  avg # of iterations =  2.0

     negative rho (up, down):  1.019E-05 0.000E+00

     total cpu time spent up to now is      633.8 secs

     total energy              =   -8984.34795023 Ry
     Harris-Foulkes estimate   =   -8984.55487743 Ry
     estimated scf accuracy    <       1.34212019 Ry

     iteration #  3     ecut=    40.42 Ry     beta=0.20
     Davidson diagonalization with overlap
     ethr =  2.04E-04,  avg # of iterations =  3.8

     negative rho (up, down):  1.787E-05 0.000E+00

     total cpu time spent up to now is      742.3 secs

     total energy              =   -8984.13992558 Ry
     Harris-Foulkes estimate   =   -8984.37423933 Ry
     estimated scf accuracy    <       0.68407980 Ry

     iteration #  4     ecut=    40.42 Ry     beta=0.20
     Davidson diagonalization with overlap
     ethr =  1.04E-04,  avg # of iterations =  3.0

     negative rho (up, down):  2.041E-05 0.000E+00

     total cpu time spent up to now is      852.7 secs

     total energy              =   -8984.15190621 Ry
     Harris-Foulkes estimate   =   -8984.19868855 Ry
     estimated scf accuracy    <       0.15558800 Ry

     iteration #  5     ecut=    40.42 Ry     beta=0.20
     Davidson diagonalization with overlap
     ethr =  2.36E-05,  avg # of iterations =  3.2

     negative rho (up, down):  1.264E-05 0.000E+00

     total cpu time spent up to now is      958.8 secs

     total energy              =   -8984.14706345 Ry
     Harris-Foulkes estimate   =   -8984.16103895 Ry
     estimated scf accuracy    <       0.05540482 Ry

     iteration #  6     ecut=    40.42 Ry     beta=0.20
     Davidson diagonalization with overlap
     ethr =  8.42E-06,  avg # of iterations =  4.5

     negative rho (up, down):  7.477E-06 0.000E+00

     total cpu time spent up to now is     1077.3 secs

     total energy              =   -8984.14500399 Ry
     Harris-Foulkes estimate   =   -8984.15192942 Ry
     estimated scf accuracy    <       0.02829983 Ry

     iteration #  7     ecut=    40.42 Ry     beta=0.20
     Davidson diagonalization with overlap
     ethr =  4.30E-06,  avg # of iterations =  5.8

     negative rho (up, down):  1.584E-05 0.000E+00

     total cpu time spent up to now is     1192.3 secs

     total energy              =   -8984.14479262 Ry
     Harris-Foulkes estimate   =   -8984.14699091 Ry
     estimated scf accuracy    <       0.01564978 Ry

     iteration #  8     ecut=    40.42 Ry     beta=0.20
     Davidson diagonalization with overlap
     ethr =  2.38E-06,  avg # of iterations =  4.2

     negative rho (up, down):  5.372E-04 0.000E+00

     total cpu time spent up to now is     1301.9 secs

     total energy              =   -8984.14260657 Ry
     Harris-Foulkes estimate   =   -8984.14494010 Ry
     estimated scf accuracy    <       0.01161011 Ry

     iteration #  9     ecut=    40.42 Ry     beta=0.20
     Davidson diagonalization with overlap
     ethr =  1.76E-06,  avg # of iterations =  2.8

     negative rho (up, down):  7.904E-04 0.000E+00

     total cpu time spent up to now is     1408.5 secs

     total energy              =   -8984.14287461 Ry
     Harris-Foulkes estimate   =   -8984.14291650 Ry
     estimated scf accuracy    <       0.00638212 Ry

     iteration # 10     ecut=    40.42 Ry     beta=0.20
     Davidson diagonalization with overlap
     ethr =  9.70E-07,  avg # of iterations =  2.2

     negative rho (up, down):  1.184E-02 0.000E+00

     total cpu time spent up to now is     1513.2 secs

     total energy              =   -8984.14248355 Ry
     Harris-Foulkes estimate   =   -8984.14294906 Ry
     estimated scf accuracy    <       0.00522025 Ry

     iteration # 11     ecut=    40.42 Ry     beta=0.20
     Davidson diagonalization with overlap
     ethr =  7.93E-07,  avg # of iterations =  4.5

     negative rho (up, down):  5.093E-02 0.000E+00

     total cpu time spent up to now is     1624.8 secs

     total energy              =   -8984.14268764 Ry
     Harris-Foulkes estimate   =   -8984.14275192 Ry
     estimated scf accuracy    <       0.00366193 Ry

     iteration # 12     ecut=    40.42 Ry     beta=0.20
     Davidson diagonalization with overlap
     ethr =  5.57E-07,  avg # of iterations =  4.0

     negative rho (up, down):  4.224E-02 0.000E+00

     total cpu time spent up to now is     1738.4 secs

     total energy              =   -8984.14221728 Ry
     Harris-Foulkes estimate   =   -8984.14291138 Ry
     estimated scf accuracy    <       0.00194198 Ry

     iteration # 13     ecut=    40.42 Ry     beta=0.20
     Davidson diagonalization with overlap
     ethr =  2.95E-07,  avg # of iterations =  4.0

     negative rho (up, down):  4.352E-02 0.000E+00

     total cpu time spent up to now is     1854.4 secs

     total energy              =   -8984.14234085 Ry
     Harris-Foulkes estimate   =   -8984.14236623 Ry
     estimated scf accuracy    <       0.00076548 Ry

     iteration # 14     ecut=    40.42 Ry     beta=0.20
     Davidson diagonalization with overlap
     ethr =  1.16E-07,  avg # of iterations =  2.0

     negative rho (up, down):  2.635E-02 0.000E+00

     total cpu time spent up to now is     1957.8 secs

     total energy              =   -8984.14181884 Ry
     Harris-Foulkes estimate   =   -8984.14235004 Ry
     estimated scf accuracy    <       0.00064018 Ry

     iteration # 15     ecut=    40.42 Ry     beta=0.20
     Davidson diagonalization with overlap
     ethr =  9.73E-08,  avg # of iterations =  3.5

     negative rho (up, down):  2.017E-02 0.000E+00

     total cpu time spent up to now is     2073.9 secs

     total energy              =   -8984.14170622 Ry
     Harris-Foulkes estimate   =   -8984.14187731 Ry
     estimated scf accuracy    <       0.00029628 Ry

     iteration # 16     ecut=    40.42 Ry     beta=0.20
     Davidson diagonalization with overlap
     ethr =  4.50E-08,  avg # of iterations =  4.0

     negative rho (up, down):  2.004E-02 0.000E+00

     total cpu time spent up to now is     2185.4 secs

     total energy              =   -8984.14168553 Ry
     Harris-Foulkes estimate   =   -8984.14172735 Ry
     estimated scf accuracy    <       0.00023553 Ry

     iteration # 17     ecut=    40.42 Ry     beta=0.20
     Davidson diagonalization with overlap
     ethr =  3.58E-08,  avg # of iterations =  2.0

     negative rho (up, down):  1.877E-02 0.000E+00

     total cpu time spent up to now is     2296.0 secs

     total energy              =   -8984.14163620 Ry
     Harris-Foulkes estimate   =   -8984.14168703 Ry
     estimated scf accuracy    <       0.00020738 Ry

     iteration # 18     ecut=    40.42 Ry     beta=0.20
     Davidson diagonalization with overlap
     ethr =  3.15E-08,  avg # of iterations =  3.0

     negative rho (up, down):  1.526E-02 0.000E+00

     total cpu time spent up to now is     2401.8 secs

     total energy              =   -8984.14157062 Ry
     Harris-Foulkes estimate   =   -8984.14163828 Ry
     estimated scf accuracy    <       0.00017658 Ry

     iteration # 19     ecut=    40.42 Ry     beta=0.20
     Davidson diagonalization with overlap
     ethr =  2.68E-08,  avg # of iterations =  2.0

     negative rho (up, down):  1.732E-02 0.000E+00

     total cpu time spent up to now is     2501.7 secs

     total energy              =   -8984.14153329 Ry
     Harris-Foulkes estimate   =   -8984.14157330 Ry
     estimated scf accuracy    <       0.00014387 Ry

     iteration # 20     ecut=    40.42 Ry     beta=0.20
     Davidson diagonalization with overlap
     ethr =  2.19E-08,  avg # of iterations =  3.0

     negative rho (up, down):  1.234E-02 0.000E+00

     total cpu time spent up to now is     2608.6 secs

     total energy              =   -8984.14145444 Ry
     Harris-Foulkes estimate   =   -8984.14154249 Ry
     estimated scf accuracy    <       0.00007337 Ry

     iteration # 21     ecut=    40.42 Ry     beta=0.20
     Davidson diagonalization with overlap
     ethr =  1.12E-08,  avg # of iterations =  3.0

     negative rho (up, down):  1.136E-02 0.000E+00

     total cpu time spent up to now is     2713.4 secs

     total energy              =   -8984.14144157 Ry
     Harris-Foulkes estimate   =   -8984.14145746 Ry
     estimated scf accuracy    <       0.00005176 Ry

     iteration # 22     ecut=    40.42 Ry     beta=0.20
     Davidson diagonalization with overlap
     ethr =  7.87E-09,  avg # of iterations =  1.2

     negative rho (up, down):  9.358E-03 0.000E+00

     total cpu time spent up to now is     2817.9 secs

     total energy              =   -8984.14142720 Ry
     Harris-Foulkes estimate   =   -8984.14144192 Ry
     estimated scf accuracy    <       0.00004513 Ry

     iteration # 23     ecut=    40.42 Ry     beta=0.20
     Davidson diagonalization with overlap
     ethr =  6.86E-09,  avg # of iterations =  4.0

     negative rho (up, down):  7.766E-03 0.000E+00

     total cpu time spent up to now is     2929.2 secs

     total energy              =   -8984.14139898 Ry
     Harris-Foulkes estimate   =   -8984.14143181 Ry
     estimated scf accuracy    <       0.00002930 Ry

     iteration # 24     ecut=    40.42 Ry     beta=0.20
     Davidson diagonalization with overlap
     ethr =  4.45E-09,  avg # of iterations =  4.0

     negative rho (up, down):  7.112E-03 0.000E+00

     total cpu time spent up to now is     3045.4 secs

     total energy              =   -8984.14139617 Ry
     Harris-Foulkes estimate   =   -8984.14140131 Ry
     estimated scf accuracy    <       0.00001124 Ry

     iteration # 25     ecut=    40.42 Ry     beta=0.20
     Davidson diagonalization with overlap
     ethr =  1.71E-09,  avg # of iterations =  3.0

     negative rho (up, down):  4.560E-03 0.000E+00

     total cpu time spent up to now is     3154.9 secs

     total energy              =   -8984.14138611 Ry
     Harris-Foulkes estimate   =   -8984.14139643 Ry
     estimated scf accuracy    <       0.00000834 Ry

     iteration # 26     ecut=    40.42 Ry     beta=0.20
     Davidson diagonalization with overlap
     ethr =  1.27E-09,  avg # of iterations =  3.2

     negative rho (up, down):  4.114E-03 0.000E+00

     total cpu time spent up to now is     3276.6 secs

     total energy              =   -8984.14138798 Ry
     Harris-Foulkes estimate   =   -8984.14138672 Ry
     estimated scf accuracy    <       0.00000319 Ry

     iteration # 27     ecut=    40.42 Ry     beta=0.20
     Davidson diagonalization with overlap
     ethr =  4.85E-10,  avg # of iterations =  3.0

     negative rho (up, down):  3.999E-03 0.000E+00

     total cpu time spent up to now is     3395.1 secs

     total energy              =   -8984.14138928 Ry
     Harris-Foulkes estimate   =   -8984.14138806 Ry
     estimated scf accuracy    <       0.00000204 Ry

     iteration # 28     ecut=    40.42 Ry     beta=0.20
     Davidson diagonalization with overlap
     ethr =  3.11E-10,  avg # of iterations =  3.8

     negative rho (up, down):  3.806E-03 0.000E+00

     total cpu time spent up to now is     3505.9 secs

     total energy              =   -8984.14138949 Ry
     Harris-Foulkes estimate   =   -8984.14138954 Ry
     estimated scf accuracy    <       0.00000099 Ry

     iteration # 29     ecut=    40.42 Ry     beta=0.20
     Davidson diagonalization with overlap
     ethr =  1.51E-10,  avg # of iterations =  3.5

     negative rho (up, down):  3.912E-03 0.000E+00

     total cpu time spent up to now is     3606.6 secs

     End of self-consistent calculation

          k = 0.0000 0.0000 0.0000 (101779 PWs)   bands (ev):

  -106.5129-106.4434-106.4253-106.4224-106.4156-106.4155-106.4129-106.4108
  -106.4107-106.4100-106.4091-106.4085-106.4081-106.4069-106.4062-106.4058
  -106.4056-106.4048-106.4042-106.4036-106.4031-106.4023-106.4017-106.4012
  -106.3997-106.3994-106.3985-106.3979-106.3970-106.3966-106.3961-106.3949
   -57.8988 -57.8919 -57.8633 -57.8515 -57.8499 -57.8477 -57.8396 -57.8385
   -57.8312 -57.8293 -57.8264 -57.8244 -57.8225 -57.8202 -57.8175 -57.8174
   -57.8167 -57.8157 -57.7978 -57.7922 -57.7812 -57.7802 -57.7774 -57.7749
   -57.7728 -57.7697 -57.7680 -57.7663 -57.7658 -57.7643 -57.7639 -57.7627
   -57.7612 -57.7610 -57.7603 -57.7577 -57.7497 -57.7483 -57.7478 -57.7465
   -57.7454 -57.7442 -57.7390 -57.7388 -57.7375 -57.7243 -57.7210 -57.7197
   -57.7167 -57.7142 -57.7130 -57.7117 -57.7109 -57.7107 -57.7098 -57.6962
   -57.6950 -57.6931 -57.6908 -57.6899 -57.6894 -57.6888 -57.6880 -57.6722
   -57.6718 -57.6545 -57.6399 -57.6321 -57.6278 -57.6264 -57.6257 -57.6202
   -57.6055 -57.6016 -57.5969 -57.5944 -57.5938 -57.5933 -57.5919 -57.5909
   -57.5793 -57.5682 -57.5651 -57.5611 -57.5579 -57.5570 -57.5558 -57.5546
   -57.5538 -57.5514 -57.5468 -57.5454 -57.5453 -57.5431 -57.5429 -57.5405
   -24.0578 -23.5555 -21.6888 -21.1601 -16.6649 -14.4812 -12.7507 -11.9171
    -9.8597  -9.4971  -8.6097  -8.4729  -8.2144  -8.0258  -7.9497  -7.9467
    -7.9441  -7.9433  -7.9427  -7.9093  -7.6831  -7.3845  -7.3610  -7.3585
    -7.3574  -7.3211  -7.3178  -7.3131  -6.9094  -6.8970  -6.8936  -6.8922
    -6.8900  -6.8885  -6.8651  -6.7116  -6.7081  -6.7013  -6.6630  -6.6616
    -6.6559  -6.6554  -6.6551  -6.6538  -6.4626  -6.2828  -6.2671  -6.2663
    -6.2591  -6.2570  -6.2538  -6.2534  -6.2494  -6.2478  -6.2454  -6.2449
    -6.2440  -6.0895  -6.0185  -6.0143  -6.0131  -6.0118  -6.0103  -5.9606
    -5.9249  -5.6155  -5.5968  -5.5852  -5.5224  -5.4784  -5.4755  -5.4746
    -5.4729  -5.4723  -5.4679  -5.3958  -5.3155  -5.3111  -5.3025  -5.3015
    -5.3008  -5.2988  -5.2953  -5.2929  -5.2342  -5.2250  -5.2151  -5.2130
    -5.2116  -5.2030  -5.1711  -5.1708  -5.0681  -5.0630  -5.0621  -5.0557
    -5.0549  -5.0547  -5.0150  -5.0109  -5.0048  -4.9995  -4.9980  -4.9860
    -4.9049  -4.8210  -4.7984  -4.7970  -4.7954  -4.7948  -4.7856  -4.7821
    -4.7793  -4.7763  -4.7759  -4.7753  -4.7727  -4.7078  -4.7063  -4.7040
    -4.5451  -4.5437  -4.5357  -4.5334  -4.5320  -4.5308  -4.2462  -4.1697
    -4.1689  -4.1636  -4.1623  -4.1591  -4.1582  -3.9243  -3.9010  -3.8995
    -3.8993  -3.8834  -3.8745  -3.8610  -3.8497  -3.8266  -3.8163  -3.8114
    -3.7929  -3.7913  -3.7878  -3.7864  -3.7850  -3.7826  -3.7500  -3.7172
    -3.7055  -3.7053  -3.7029  -3.7015  -3.6998  -3.5216  -3.5174  -3.5124
    -3.5117  -3.5083  -3.4958  -3.4125  -3.4045  -3.4007  -3.3358  -3.2476
    -3.2452  -3.2437  -3.0973  -3.0899  -3.0776  -3.0748  -3.0737  -3.0735
    -3.0728  -3.0717  -2.9380  -2.8843  -2.8836  -2.8815  -2.8795  -2.8786
    -2.8203  -2.6834  -2.6768  -2.6758  -2.6734  -2.5597  -2.5586  -2.5569
    -2.3265  -1.9538  -1.9363  -1.9333  -1.9314  -1.9285  -1.7373  -0.6633
    -0.6584  -0.6578  -0.6537  -0.6519  -0.6483  -0.4188  -0.3820  -0.3780
    -0.3650   0.5046   0.5124

          k = 0.0000-0.0501 0.0000 (101872 PWs)   bands (ev):

  -106.5129-106.4434-106.4253-106.4224-106.4155-106.4154-106.4131-106.4109
  -106.4109-106.4097-106.4088-106.4085-106.4076-106.4074-106.4064-106.4057
  -106.4056-106.4050-106.4041-106.4035-106.4031-106.4023-106.4016-106.4012
  -106.3997-106.3994-106.3985-106.3979-106.3970-106.3965-106.3963-106.3948
   -57.8972 -57.8885 -57.8505 -57.8461 -57.8450 -57.8390 -57.8372 -57.8348
   -57.8324 -57.8305 -57.8301 -57.8293 -57.8282 -57.8235 -57.8183 -57.8172
   -57.8140 -57.8112 -57.8104 -57.8074 -57.8002 -57.7993 -57.7961 -57.7956
   -57.7921 -57.7875 -57.7734 -57.7692 -57.7659 -57.7610 -57.7566 -57.7510
   -57.7496 -57.7478 -57.7464 -57.7445 -57.7399 -57.7388 -57.7348 -57.7340
   -57.7305 -57.7302 -57.7288 -57.7281 -57.7270 -57.7245 -57.7224 -57.7213
   -57.7148 -57.7142 -57.7125 -57.7110 -57.7105 -57.7093 -57.7074 -57.7062
   -57.7030 -57.7015 -57.7000 -57.6964 -57.6954 -57.6920 -57.6895 -57.6794
   -57.6758 -57.6485 -57.6460 -57.6369 -57.6297 -57.6212 -57.6173 -57.6130
   -57.6089 -57.6080 -57.6054 -57.5984 -57.5942 -57.5921 -57.5885 -57.5834
   -57.5775 -57.5696 -57.5661 -57.5634 -57.5586 -57.5583 -57.5550 -57.5532
   -57.5510 -57.5501 -57.5483 -57.5470 -57.5449 -57.5437 -57.5422 -57.5403
   -24.0578 -23.5555 -21.6888 -21.1601 -16.6649 -14.4812 -12.7508 -11.9171
    -9.8592  -9.0388  -9.0205  -8.5994  -8.4729  -8.2500  -8.1963  -8.1257
    -7.6866  -7.5892  -7.5782  -7.4231  -7.4177  -7.3807  -7.2576  -7.2571
    -7.2565  -7.2503  -7.1091  -7.0998  -7.0710  -7.0665  -7.0652  -7.0623
    -6.9275  -6.9247  -6.9193  -6.9171  -6.8638  -6.8574  -6.8484  -6.5943
    -6.5914  -6.5872  -6.5846  -6.5725  -6.5616  -6.5518  -6.5516  -6.5293
    -6.5075  -6.4866  -6.4791  -6.4494  -6.3308  -6.3257  -6.2634  -6.2458
    -6.2452  -6.2431  -6.2355  -6.2299  -6.0469  -5.9330  -5.8620  -5.8539
    -5.7097  -5.6986  -5.5622  -5.5477  -5.5384  -5.4858  -5.4803  -5.4799
    -5.4769  -5.4636  -5.4594  -5.4410  -5.4315  -5.3857  -5.3829  -5.3796
    -5.3766  -5.3731  -5.3707  -5.3208  -5.3123  -5.2577  -5.2534  -5.2352
    -5.2256  -5.2192  -5.2158  -5.2103  -5.2025  -5.0063  -4.9984  -4.9955
    -4.9874  -4.9832  -4.9791  -4.9397  -4.9313  -4.9250  -4.9199  -4.9068
    -4.8993  -4.8961  -4.8354  -4.8252  -4.7160  -4.7056  -4.6384  -4.6259
    -4.6244  -4.6140  -4.5582  -4.5544  -4.5512  -4.5486  -4.5242  -4.5167
    -4.3811  -4.3411  -4.2806  -4.2633  -4.2585  -4.1976  -4.1890  -4.1886
    -4.1830  -4.1750  -4.1057  -4.0210  -4.0123  -3.9133  -3.9017  -3.8979
    -3.8920  -3.8903  -3.8773  -3.7847  -3.7726  -3.7647  -3.7540  -3.7507
    -3.7489  -3.7486  -3.7345  -3.7107  -3.6228  -3.6158  -3.5711  -3.5591
    -3.4786  -3.4735  -3.4718  -3.4659  -3.4253  -3.4209  -3.4144  -3.4121
    -3.3568  -3.3487  -3.3280  -3.3251  -3.3212  -3.3188  -3.2960  -3.2934
    -3.1993  -3.1937  -3.1523  -3.1440  -3.1274  -3.1252  -3.1226  -3.1195
    -3.0776  -3.0656  -3.0622  -3.0576  -3.0115  -3.0036  -2.9830  -2.9756
    -2.9280  -2.8680  -2.8656  -2.8615  -2.8602  -2.7985  -2.7691  -2.7341
    -2.7331  -2.7289  -2.7285  -2.5744  -2.3258  -2.1508  -2.0599  -0.9514
    -0.9435  -0.9350  -0.8602  -0.6686  -0.6649  -0.6550  -0.6544  -0.5024
    -0.4681   0.5401   0.5642

          k = 0.0433-0.0250 0.0000 (101872 PWs)   bands (ev):

  -106.5129-106.4434-106.4253-106.4224-106.4155-106.4154-106.4132-106.4112
  -106.4104-106.4098-106.4089-106.4082-106.4077-106.4075-106.4062-106.4059
  -106.4054-106.4049-106.4043-106.4037-106.4030-106.4022-106.4016-106.4012
  -106.3997-106.3995-106.3984-106.3979-106.3970-106.3966-106.3962-106.3948
   -57.8955 -57.8898 -57.8525 -57.8476 -57.8465 -57.8380 -57.8373 -57.8350
   -57.8315 -57.8311 -57.8308 -57.8297 -57.8272 -57.8199 -57.8172 -57.8151
   -57.8136 -57.8131 -57.8082 -57.8071 -57.8005 -57.7983 -57.7963 -57.7960
   -57.7936 -57.7870 -57.7759 -57.7699 -57.7650 -57.7639 -57.7551 -57.7522
   -57.7488 -57.7485 -57.7466 -57.7454 -57.7398 -57.7393 -57.7337 -57.7329
   -57.7312 -57.7310 -57.7289 -57.7285 -57.7268 -57.7236 -57.7226 -57.7193
   -57.7148 -57.7134 -57.7127 -57.7107 -57.7103 -57.7087 -57.7075 -57.7062
   -57.7039 -57.7010 -57.6997 -57.6967 -57.6964 -57.6915 -57.6896 -57.6790
   -57.6767 -57.6506 -57.6424 -57.6366 -57.6319 -57.6226 -57.6171 -57.6119
   -57.6101 -57.6068 -57.6019 -57.5995 -57.5939 -57.5936 -57.5906 -57.5833
   -57.5754 -57.5692 -57.5660 -57.5652 -57.5592 -57.5564 -57.5560 -57.5528
   -57.5506 -57.5499 -57.5489 -57.5466 -57.5459 -57.5430 -57.5423 -57.5404
   -24.0578 -23.5555 -21.6888 -21.1601 -16.6649 -14.4812 -12.7508 -11.9170
    -9.8591  -9.0373  -9.0229  -8.5989  -8.4725  -8.2411  -8.1982  -8.1337
    -7.6862  -7.5879  -7.5787  -7.4228  -7.4182  -7.3791  -7.2587  -7.2570
    -7.2551  -7.2517  -7.1073  -7.1014  -7.0702  -7.0662  -7.0652  -7.0630
    -6.9253  -6.9228  -6.9220  -6.9171  -6.8661  -6.8573  -6.8489  -6.5955
    -6.5917  -6.5852  -6.5841  -6.5703  -6.5658  -6.5536  -6.5534  -6.5204
    -6.5084  -6.4849  -6.4786  -6.4528  -6.3409  -6.3251  -6.2651  -6.2468
    -6.2461  -6.2434  -6.2351  -6.2290  -6.0330  -5.9317  -5.8632  -5.8516
    -5.7115  -5.7026  -5.5670  -5.5491  -5.5395  -5.4879  -5.4824  -5.4818
    -5.4699  -5.4610  -5.4549  -5.4429  -5.4325  -5.3882  -5.3843  -5.3820
    -5.3779  -5.3725  -5.3714  -5.3161  -5.3152  -5.2567  -5.2524  -5.2310
    -5.2272  -5.2208  -5.2136  -5.2092  -5.1987  -5.0057  -4.9973  -4.9938
    -4.9893  -4.9827  -4.9801  -4.9428  -4.9319  -4.9254  -4.9226  -4.9043
    -4.9014  -4.8977  -4.8427  -4.8250  -4.7062  -4.7009  -4.6392  -4.6264
    -4.6151  -4.6128  -4.5618  -4.5546  -4.5517  -4.5491  -4.5228  -4.5165
    -4.3558  -4.3463  -4.3156  -4.2654  -4.2499  -4.1922  -4.1912  -4.1872
    -4.1814  -4.1749  -4.1329  -4.0184  -4.0020  -3.9098  -3.9030  -3.8994
    -3.8921  -3.8903  -3.8693  -3.7790  -3.7710  -3.7679  -3.7528  -3.7517
    -3.7503  -3.7477  -3.7364  -3.7062  -3.6158  -3.6107  -3.5742  -3.5583
    -3.4870  -3.4796  -3.4727  -3.4704  -3.4225  -3.4191  -3.4145  -3.4136
    -3.3541  -3.3493  -3.3253  -3.3240  -3.3214  -3.3200  -3.2994  -3.2931
    -3.2046  -3.1916  -3.1486  -3.1414  -3.1286  -3.1254  -3.1211  -3.1200
    -3.0743  -3.0674  -3.0641  -3.0616  -3.0106  -3.0045  -2.9815  -2.9770
    -2.9330  -2.8696  -2.8647  -2.8636  -2.8535  -2.8115  -2.7602  -2.7345
    -2.7339  -2.7289  -2.7275  -2.5679  -2.3262  -2.1476  -2.0680  -0.9561
    -0.9427  -0.9325  -0.8598  -0.6674  -0.6597  -0.6566  -0.6557  -0.5078
    -0.4618   0.5269   0.5899

          k =-0.0433-0.0250 0.0000 (101872 PWs)   bands (ev):

  -106.5129-106.4434-106.4253-106.4224-106.4155-106.4154-106.4134-106.4110
  -106.4104-106.4099-106.4088-106.4083-106.4081-106.4069-106.4065-106.4060
  -106.4055-106.4047-106.4044-106.4037-106.4029-106.4023-106.4016-106.4012
  -106.3997-106.3994-106.3984-106.3979-106.3971-106.3965-106.3962-106.3948
   -57.8963 -57.8893 -57.8515 -57.8472 -57.8451 -57.8384 -57.8364 -57.8355
   -57.8325 -57.8311 -57.8307 -57.8291 -57.8280 -57.8200 -57.8186 -57.8164
   -57.8148 -57.8112 -57.8093 -57.8076 -57.7993 -57.7989 -57.7969 -57.7957
   -57.7926 -57.7878 -57.7750 -57.7707 -57.7647 -57.7612 -57.7564 -57.7527
   -57.7498 -57.7474 -57.7459 -57.7442 -57.7406 -57.7392 -57.7336 -57.7333
   -57.7304 -57.7298 -57.7284 -57.7281 -57.7269 -57.7248 -57.7215 -57.7215
   -57.7146 -57.7145 -57.7127 -57.7114 -57.7108 -57.7089 -57.7076 -57.7058
   -57.7035 -57.7014 -57.7003 -57.6965 -57.6950 -57.6919 -57.6897 -57.6796
   -57.6757 -57.6500 -57.6435 -57.6365 -57.6321 -57.6211 -57.6169 -57.6118
   -57.6084 -57.6080 -57.6046 -57.5989 -57.5979 -57.5912 -57.5872 -57.5821
   -57.5785 -57.5696 -57.5668 -57.5626 -57.5598 -57.5575 -57.5544 -57.5525
   -57.5517 -57.5504 -57.5488 -57.5471 -57.5444 -57.5434 -57.5425 -57.5404
   -24.0578 -23.5555 -21.6888 -21.1601 -16.6649 -14.4812 -12.7508 -11.9170
    -9.8592  -9.0385  -9.0212  -8.5999  -8.4719  -8.2468  -8.1956  -8.1299
    -7.6877  -7.5889  -7.5770  -7.4226  -7.4184  -7.3798  -7.2586  -7.2575
    -7.2554  -7.2506  -7.1084  -7.0993  -7.0706  -7.0669  -7.0644  -7.0640
    -6.9271  -6.9243  -6.9190  -6.9180  -6.8643  -6.8556  -6.8517  -6.5958
    -6.5922  -6.5862  -6.5849  -6.5754  -6.5594  -6.5523  -6.5516  -6.5259
    -6.5079  -6.4837  -6.4797  -6.4544  -6.3300  -6.3254  -6.2596  -6.2462
    -6.2455  -6.2427  -6.2365  -6.2298  -6.0433  -5.9351  -5.8625  -5.8543
    -5.7095  -5.7002  -5.5611  -5.5468  -5.5402  -5.4897  -5.4822  -5.4805
    -5.4769  -5.4642  -5.4537  -5.4375  -5.4332  -5.3844  -5.3835  -5.3790
    -5.3739  -5.3735  -5.3715  -5.3199  -5.3149  -5.2584  -5.2549  -5.2328
    -5.2259  -5.2185  -5.2162  -5.2101  -5.2047  -5.0060  -4.9965  -4.9939
    -4.9895  -4.9839  -4.9821  -4.9392  -4.9307  -4.9290  -4.9185  -4.9064
    -4.9001  -4.8966  -4.8400  -4.8271  -4.7081  -4.7047  -4.6397  -4.6247
    -4.6146  -4.6129  -4.5618  -4.5562  -4.5507  -4.5489  -4.5209  -4.5162
    -4.3728  -4.3384  -4.2988  -4.2654  -4.2527  -4.1974  -4.1890  -4.1877
    -4.1771  -4.1718  -4.1286  -4.0213  -4.0079  -3.9116  -3.9028  -3.8990
    -3.8919  -3.8867  -3.8819  -3.7827  -3.7719  -3.7615  -3.7553  -3.7513
    -3.7498  -3.7475  -3.7355  -3.7022  -3.6224  -3.6098  -3.5688  -3.5602
    -3.4796  -3.4775  -3.4740  -3.4712  -3.4257  -3.4179  -3.4159  -3.4118
    -3.3561  -3.3489  -3.3298  -3.3237  -3.3191  -3.3184  -3.2978  -3.2939
    -3.2036  -3.1935  -3.1496  -3.1429  -3.1273  -3.1235  -3.1218  -3.1196
    -3.0767  -3.0657  -3.0636  -3.0606  -3.0114  -3.0037  -2.9828  -2.9755
    -2.9328  -2.8722  -2.8657  -2.8607  -2.8547  -2.8050  -2.7629  -2.7342
    -2.7338  -2.7288  -2.7282  -2.5731  -2.3250  -2.1492  -2.0625  -0.9535
    -0.9417  -0.9373  -0.8603  -0.6673  -0.6627  -0.6559  -0.6547  -0.5041
    -0.4642   0.5360   0.5762

     the Fermi energy is    -0.9063 ev

!    total energy              =   -8984.14138964 Ry
     Harris-Foulkes estimate   =   -8984.14138958 Ry
     estimated scf accuracy    <       0.00000041 Ry

     The total energy is the sum of the following terms:

     one-electron contribution =  -83339.07316472 Ry
     hartree contribution      =   41493.06594468 Ry
     xc contribution           =    -861.90586589 Ry
     ewald contribution        =   33723.82165458 Ry
     smearing contrib. (-TS)   =      -0.04995829 Ry

     convergence has been achieved in  29 iterations

     Forces acting on atoms (Ry/au):


     negative rho (up, down):  3.912E-03 0.000E+00
     atom    1 type  1   force =    -0.00016974    0.00008495   -0.03295713
     atom    2 type  1   force =    -0.00019058    0.00019365    0.03329151
     atom    3 type  1   force =     0.00039081    0.00006347   -0.03350454
     atom    4 type  1   force =    -0.00116426   -0.00235111    0.03153438
     atom    5 type  1   force =     0.00051950    0.00036729   -0.03363739
     atom    6 type  1   force =    -0.00101342    0.00036566    0.03331634
     atom    7 type  1   force =    -0.00007555   -0.00008838   -0.03255740
     atom    8 type  1   force =    -0.00020624    0.00006984    0.03309536
     atom    9 type  1   force =     0.00011337    0.00009800   -0.03257785
     atom   10 type  1   force =     0.00014485   -0.00005224    0.03273659
     atom   11 type  1   force =     0.00006930    0.00051303   -0.03331422
     atom   12 type  1   force =     0.00160283   -0.00276957    0.03128965
     atom   13 type  1   force =    -0.00072832   -0.00040490   -0.03115350
     atom   14 type  1   force =     0.00528654   -0.00165004   -0.00480775
     atom   15 type  1   force =     0.00028765   -0.00030171   -0.03410912
     atom   16 type  1   force =    -0.00128072    0.00145683    0.03240113
     atom   17 type  1   force =    -0.00002003   -0.00050834   -0.03346733
     atom   18 type  1   force =    -0.00020839   -0.00010760    0.03300167
     atom   19 type  1   force =    -0.00049785    0.00025544   -0.03399112
     atom   20 type  1   force =    -0.00024208    0.00010584    0.03327684
     atom   21 type  1   force =     0.00097460   -0.00056555   -0.03117904
     atom   22 type  1   force =     0.00312447    0.00015791    0.03095618
     atom   23 type  1   force =     0.00015356    0.00084764   -0.03086248
     atom   24 type  1   force =     0.00167632    0.00225002    0.03129932
     atom   25 type  1   force =     0.00006055   -0.00041561   -0.03352942
     atom   26 type  1   force =     0.00023420   -0.00007903    0.03263546
     atom   27 type  1   force =     0.00004671   -0.00000282   -0.03202998
     atom   28 type  1   force =    -0.00014889    0.00003704    0.03305278
     atom   29 type  1   force =    -0.00040699    0.00021516   -0.03381735
     atom   30 type  1   force =     0.00006373    0.00000423    0.03269383
     atom   31 type  1   force =    -0.00047393   -0.00026912   -0.03320075
     atom   32 type  1   force =    -0.00021935   -0.00000594    0.03323859
     atom   33 type  2   force =    -0.00045530    0.00789346    0.00210978
     atom   34 type  2   force =     0.00156327    0.02831175   -0.01785113
     atom   35 type  2   force =     0.02446427   -0.00003898   -0.02790673
     atom   36 type  2   force =    -0.00028086    0.00520865   -0.01336225
     atom   37 type  3   force =    -0.00386107   -0.00882730    0.01539233
     atom   38 type  3   force =     0.00389108   -0.01903656    0.01079423
     atom   39 type  3   force =    -0.02440927    0.00580992    0.03923218
     atom   40 type  3   force =     0.00136921   -0.00159024    0.02823707
     atom   41 type  3   force =     0.00163977   -0.00029386   -0.00919359
     atom   42 type  4   force =    -0.00040814    0.00428197   -0.00498764
     atom   43 type  4   force =     0.00176091   -0.00192207   -0.00519782
     atom   44 type  4   force =    -0.00044159   -0.00530422   -0.00637302
     atom   45 type  4   force =     0.00048748    0.00615412    0.00724528
     atom   46 type  4   force =    -0.01130407   -0.00022409    0.01886200
     atom   47 type  4   force =    -0.00171836   -0.01793658    0.00587604

     Total force =     0.202505     Total SCF correction =     0.002205
 !ASE

     Writing output data file calc.save
     Check: negative starting charge=   -0.002318
     NEW-OLD atomic charge density approx. for the potential
     Check: negative starting charge=   -0.002296

     negative rho (up, down):  4.992E-03 0.000E+00

     total cpu time spent up to now is     3638.6 secs

     per-process dynamical memory:   582.7 Mb

     Self-consistent Calculation

     iteration #  1     ecut=    40.42 Ry     beta=0.20
     Davidson diagonalization with overlap
     ethr =  1.51E-10,  avg # of iterations = 13.5

     negative rho (up, down):  3.261E-03 0.000E+00

     total cpu time spent up to now is     4098.5 secs

     total energy              =   -8984.05561003 Ry
     Harris-Foulkes estimate   =   -8984.06938535 Ry
     estimated scf accuracy    <       0.11752436 Ry

     iteration #  2     ecut=    40.42 Ry     beta=0.20
     Davidson diagonalization with overlap
     ethr =  1.79E-05,  avg # of iterations =  2.0

     negative rho (up, down):  3.738E-03 0.000E+00

     total cpu time spent up to now is     4207.7 secs

     total energy              =   -8984.01574489 Ry
     Harris-Foulkes estimate   =   -8984.05611774 Ry
     estimated scf accuracy    <       0.08281522 Ry

     iteration #  3     ecut=    40.42 Ry     beta=0.20
     Davidson diagonalization with overlap
     ethr =  1.26E-05,  avg # of iterations =  3.0

     negative rho (up, down):  2.139E-03 0.000E+00

     total cpu time spent up to now is     4342.1 secs

     total energy              =   -8984.02635841 Ry
     Harris-Foulkes estimate   =   -8984.02724114 Ry
     estimated scf accuracy    <       0.00880306 Ry

     iteration #  4     ecut=    40.42 Ry     beta=0.20
     Davidson diagonalization with overlap
     ethr =  1.34E-06,  avg # of iterations =  3.0

     negative rho (up, down):  1.161E-03 0.000E+00

     total cpu time spent up to now is     4464.5 secs

     total energy              =   -8984.02526350 Ry
     Harris-Foulkes estimate   =   -8984.02666447 Ry
     estimated scf accuracy    <       0.00577566 Ry

     iteration #  5     ecut=    40.42 Ry     beta=0.20
     Davidson diagonalization with overlap
     ethr =  8.78E-07,  avg # of iterations =  3.0

     negative rho (up, down):  6.401E-04 0.000E+00

     total cpu time spent up to now is     4592.2 secs

     total energy              =   -8984.02526816 Ry
     Harris-Foulkes estimate   =   -8984.02562817 Ry
     estimated scf accuracy    <       0.00299245 Ry

     iteration #  6     ecut=    40.42 Ry     beta=0.20
     Davidson diagonalization with overlap
     ethr =  4.55E-07,  avg # of iterations =  3.0

     negative rho (up, down):  3.478E-04 0.000E+00

     total cpu time spent up to now is     4710.0 secs

     total energy              =   -8984.02494610 Ry
     Harris-Foulkes estimate   =   -8984.02531157 Ry
     estimated scf accuracy    <       0.00214971 Ry

     iteration #  7     ecut=    40.42 Ry     beta=0.20
     Davidson diagonalization with overlap
     ethr =  3.27E-07,  avg # of iterations =  3.0

     negative rho (up, down):  3.311E-04 0.000E+00

     total cpu time spent up to now is     4830.6 secs

     total energy              =   -8984.02484943 Ry
     Harris-Foulkes estimate   =   -8984.02500948 Ry
     estimated scf accuracy    <       0.00155667 Ry

     iteration #  8     ecut=    40.42 Ry     beta=0.20
     Davidson diagonalization with overlap
     ethr =  2.37E-07,  avg # of iterations =  3.0

     negative rho (up, down):  6.411E-04 0.000E+00

     total cpu time spent up to now is     4937.9 secs

     total energy              =   -8984.02471149 Ry
     Harris-Foulkes estimate   =   -8984.02487653 Ry
     estimated scf accuracy    <       0.00126899 Ry

     iteration #  9     ecut=    40.42 Ry     beta=0.20
     Davidson diagonalization with overlap
     ethr =  1.93E-07,  avg # of iterations =  2.0

     negative rho (up, down):  2.216E-03 0.000E+00

     total cpu time spent up to now is     5058.2 secs

     total energy              =   -8984.02451752 Ry
     Harris-Foulkes estimate   =   -8984.02473070 Ry
     estimated scf accuracy    <       0.00102390 Ry

     iteration # 10     ecut=    40.42 Ry     beta=0.20
     Davidson diagonalization with overlap
     ethr =  1.56E-07,  avg # of iterations =  2.0

     negative rho (up, down):  8.715E-03 0.000E+00

     total cpu time spent up to now is     5166.2 secs

     total energy              =   -8984.02443212 Ry
     Harris-Foulkes estimate   =   -8984.02453899 Ry
     estimated scf accuracy    <       0.00057562 Ry

     iteration # 11     ecut=    40.42 Ry     beta=0.20
     Davidson diagonalization with overlap
     ethr =  8.75E-08,  avg # of iterations =  3.0

     negative rho (up, down):  6.517E-03 0.000E+00

     total cpu time spent up to now is     5279.3 secs

     total energy              =   -8984.02436268 Ry
     Harris-Foulkes estimate   =   -8984.02446159 Ry
     estimated scf accuracy    <       0.00030811 Ry

     iteration # 12     ecut=    40.42 Ry     beta=0.20
     Davidson diagonalization with overlap
     ethr =  4.68E-08,  avg # of iterations =  3.0

     negative rho (up, down):  7.563E-03 0.000E+00

     total cpu time spent up to now is     5394.6 secs

     total energy              =   -8984.02437558 Ry
     Harris-Foulkes estimate   =   -8984.02439442 Ry
     estimated scf accuracy    <       0.00010119 Ry

     iteration # 13     ecut=    40.42 Ry     beta=0.20
     Davidson diagonalization with overlap
     ethr =  1.54E-08,  avg # of iterations =  3.0

     negative rho (up, down):  6.315E-03 0.000E+00

     total cpu time spent up to now is     5509.2 secs

     total energy              =   -8984.02435888 Ry
     Harris-Foulkes estimate   =   -8984.02438256 Ry
     estimated scf accuracy    <       0.00004100 Ry

     iteration # 14     ecut=    40.42 Ry     beta=0.20
     Davidson diagonalization with overlap
     ethr =  6.23E-09,  avg # of iterations =  3.0

     negative rho (up, down):  5.884E-03 0.000E+00

     total cpu time spent up to now is     5618.0 secs

     total energy              =   -8984.02434912 Ry
     Harris-Foulkes estimate   =   -8984.02436050 Ry
     estimated scf accuracy    <       0.00001871 Ry

     iteration # 15     ecut=    40.42 Ry     beta=0.20
     Davidson diagonalization with overlap
     ethr =  2.84E-09,  avg # of iterations =  4.0

     negative rho (up, down):  5.502E-03 0.000E+00

     total cpu time spent up to now is     5731.3 secs

     total energy              =   -8984.02434792 Ry
     Harris-Foulkes estimate   =   -8984.02435067 Ry
     estimated scf accuracy    <       0.00000692 Ry

     iteration # 16     ecut=    40.42 Ry     beta=0.20
     Davidson diagonalization with overlap
     ethr =  1.05E-09,  avg # of iterations =  2.5

     negative rho (up, down):  5.044E-03 0.000E+00

     total cpu time spent up to now is     5841.0 secs

     total energy              =   -8984.02434614 Ry
     Harris-Foulkes estimate   =   -8984.02434810 Ry
     estimated scf accuracy    <       0.00000475 Ry

     iteration # 17     ecut=    40.42 Ry     beta=0.20
     Davidson diagonalization with overlap
     ethr =  7.22E-10,  avg # of iterations =  3.0

     negative rho (up, down):  4.957E-03 0.000E+00

     total cpu time spent up to now is     5959.0 secs

     total energy              =   -8984.02434560 Ry
     Harris-Foulkes estimate   =   -8984.02434638 Ry
     estimated scf accuracy    <       0.00000266 Ry

     iteration # 18     ecut=    40.42 Ry     beta=0.20
     Davidson diagonalization with overlap
     ethr =  4.04E-10,  avg # of iterations =  3.8

     negative rho (up, down):  4.846E-03 0.000E+00

     total cpu time spent up to now is     6075.8 secs

     total energy              =   -8984.02434554 Ry
     Harris-Foulkes estimate   =   -8984.02434576 Ry
     estimated scf accuracy    <       0.00000140 Ry

     iteration # 19     ecut=    40.42 Ry     beta=0.20
     Davidson diagonalization with overlap
     ethr =  2.13E-10,  avg # of iterations =  2.0

     negative rho (up, down):  4.566E-03 0.000E+00

     total cpu time spent up to now is     6182.0 secs

     total energy              =   -8984.02434533 Ry
     Harris-Foulkes estimate   =   -8984.02434556 Ry
     estimated scf accuracy    <       0.00000103 Ry

     iteration # 20     ecut=    40.42 Ry     beta=0.20
     Davidson diagonalization with overlap
     ethr =  1.56E-10,  avg # of iterations =  2.0

     negative rho (up, down):  4.030E-03 0.000E+00

     total cpu time spent up to now is     6276.5 secs

     End of self-consistent calculation

          k = 0.0000 0.0000 0.0000 (101779 PWs)   bands (ev):

  -106.2583-106.1455-106.1357-106.1292-106.1242-106.0973-106.0940-106.0916
  -106.0897-106.0890-106.0880-106.0870-106.0861-106.0855-106.0853-106.0833
  -106.0821-106.0802-106.0797-106.0783-106.0781-106.0766-106.0759-106.0750
  -106.0742-106.0737-106.0726-106.0717-106.0713-106.0707-106.0703-106.0688
   -57.6246 -57.6175 -57.5578 -57.5431 -57.5391 -57.5383 -57.5254 -57.5238
   -57.5116 -57.5088 -57.5057 -57.5054 -57.5045 -57.5045 -57.5024 -57.5022
   -57.4976 -57.4972 -57.4838 -57.4777 -57.4672 -57.4647 -57.4615 -57.4592
   -57.4589 -57.4546 -57.4540 -57.4515 -57.4502 -57.4484 -57.4475 -57.4462
   -57.4444 -57.4427 -57.4407 -57.4393 -57.4377 -57.4370 -57.4338 -57.4331
   -57.4284 -57.4274 -57.4261 -57.4177 -57.4173 -57.4141 -57.4021 -57.4010
   -57.3998 -57.3983 -57.3976 -57.3941 -57.3916 -57.3901 -57.3880 -57.3841
   -57.3833 -57.3769 -57.3769 -57.3755 -57.3724 -57.3693 -57.3685 -57.3558
   -57.3557 -57.3096 -57.2999 -57.2967 -57.2758 -57.2706 -57.2597 -57.2594
   -57.2561 -57.2537 -57.2482 -57.2446 -57.2386 -57.2377 -57.2363 -57.2350
   -57.2340 -57.2326 -57.2263 -57.2150 -57.2130 -57.2127 -57.2115 -57.2109
   -57.2104 -57.2098 -57.2093 -57.2086 -57.2071 -57.2061 -57.2057 -57.2043
   -26.3323 -24.5158 -21.8460 -21.8036 -16.7118 -14.1295 -12.1456 -10.9045
    -9.4011  -9.2099  -8.9336  -8.9142  -8.5250  -8.1400  -8.0224  -7.6823
    -7.5269  -7.4195  -7.3631  -7.3597  -7.3501  -7.3486  -7.3404  -6.9188
    -6.9167  -6.9111  -6.8776  -6.8697  -6.8670  -6.7849  -6.5708  -6.5134
    -6.4977  -6.4948  -6.4903  -6.4833  -6.4677  -6.2820  -6.1400  -6.1270
    -6.0921  -6.0373  -6.0333  -6.0223  -6.0146  -6.0116  -6.0094  -5.7796
    -5.7758  -5.7706  -5.7544  -5.7492  -5.7483  -5.7454  -5.7151  -5.7020
    -5.6963  -5.6943  -5.6867  -5.6814  -5.5311  -5.5269  -5.5208  -5.5192
    -5.5120  -5.5061  -5.3030  -5.2968  -5.2851  -5.1780  -5.1012  -5.0870
    -5.0857  -5.0783  -5.0751  -5.0734  -5.0298  -4.9966  -4.9756  -4.9737
    -4.9638  -4.9592  -4.9220  -4.9085  -4.9083  -4.8233  -4.8102  -4.8021
    -4.7759  -4.7544  -4.7465  -4.7450  -4.7376  -4.7355  -4.7307  -4.7271
    -4.7263  -4.7259  -4.7246  -4.6931  -4.6826  -4.6738  -4.6719  -4.6640
    -4.6449  -4.5478  -4.5237  -4.5074  -4.5046  -4.5044  -4.4982  -4.4791
    -4.4781  -4.4768  -4.4670  -4.4629  -4.4599  -4.1596  -4.1379  -4.1294
    -4.1227  -3.9892  -3.9873  -3.9822  -3.9736  -3.9714  -3.9680  -3.9622
    -3.9372  -3.7863  -3.7852  -3.7818  -3.7776  -3.7750  -3.7719  -3.7489
    -3.7485  -3.7447  -3.7375  -3.6993  -3.6625  -3.6166  -3.6042  -3.5704
    -3.5622  -3.5610  -3.5587  -3.5559  -3.5482  -3.5367  -3.5225  -3.5205
    -3.5167  -3.5078  -3.5057  -3.5043  -3.3903  -3.3888  -3.3523  -3.3478
    -3.3424  -3.3391  -3.3258  -3.3089  -3.1725  -3.1511  -3.1412  -3.1245
    -3.0754  -3.0727  -3.0706  -3.0367  -2.9275  -2.9210  -2.9175  -2.9170
    -2.9134  -2.9102  -2.8791  -2.8652  -2.8626  -2.6984  -2.6969  -2.6942
    -2.6921  -2.6914  -2.5918  -2.3408  -2.3393  -2.3336  -2.2697  -2.2686
    -2.2674  -1.9112  -1.8967  -1.8940  -1.8898  -1.8832  -1.6275  -0.3440
    -0.3252  -0.3213  -0.3201  -0.3188  -0.3141  -0.2243  -0.0332  -0.0307
    -0.0258   0.7802   0.7909

          k = 0.0000-0.0501 0.0000 (101872 PWs)   bands (ev):

  -106.2583-106.1455-106.1357-106.1292-106.1242-106.0973-106.0939-106.0917
  -106.0899-106.0889-106.0877-106.0870-106.0861-106.0857-106.0853-106.0833
  -106.0821-106.0802-106.0793-106.0790-106.0781-106.0770-106.0752-106.0750
  -106.0744-106.0735-106.0727-106.0718-106.0713-106.0707-106.0703-106.0688
   -57.6242 -57.6165 -57.5537 -57.5374 -57.5323 -57.5260 -57.5227 -57.5209
   -57.5142 -57.5118 -57.5111 -57.5111 -57.5082 -57.5071 -57.5014 -57.4988
   -57.4934 -57.4921 -57.4917 -57.4899 -57.4859 -57.4815 -57.4798 -57.4761
   -57.4731 -57.4647 -57.4609 -57.4577 -57.4532 -57.4522 -57.4472 -57.4429
   -57.4350 -57.4335 -57.4318 -57.4250 -57.4238 -57.4231 -57.4197 -57.4195
   -57.4187 -57.4121 -57.4113 -57.4091 -57.4080 -57.4059 -57.4045 -57.4040
   -57.4033 -57.4003 -57.3973 -57.3960 -57.3919 -57.3912 -57.3879 -57.3877
   -57.3868 -57.3860 -57.3805 -57.3779 -57.3740 -57.3734 -57.3726 -57.3666
   -57.3586 -57.3095 -57.2997 -57.2969 -57.2761 -57.2694 -57.2644 -57.2571
   -57.2559 -57.2497 -57.2474 -57.2442 -57.2423 -57.2412 -57.2354 -57.2348
   -57.2337 -57.2314 -57.2248 -57.2158 -57.2129 -57.2127 -57.2116 -57.2110
   -57.2104 -57.2096 -57.2092 -57.2086 -57.2071 -57.2060 -57.2056 -57.2043
   -26.3323 -24.5158 -21.8460 -21.8036 -16.7118 -14.1295 -12.1456 -10.9044
    -9.4009  -9.2081  -8.9158  -8.5371  -8.4591  -8.4379  -8.1388  -8.0204
    -7.6190  -7.5991  -7.5211  -7.2361  -7.2158  -6.9234  -6.9111  -6.8091
    -6.6959  -6.6826  -6.6796  -6.6628  -6.6614  -6.6600  -6.5900  -6.5776
    -6.5757  -6.5668  -6.5426  -6.4767  -6.4726  -6.4615  -6.4549  -6.4527
    -6.4322  -6.2683  -6.1663  -6.1619  -6.1539  -6.1530  -6.0043  -5.9918
    -5.9614  -5.9578  -5.9552  -5.9281  -5.8861  -5.8731  -5.7797  -5.7556
    -5.7390  -5.7239  -5.7156  -5.7127  -5.7084  -5.6880  -5.6726  -5.4469
    -5.4278  -5.3035  -5.2848  -5.2093  -5.1959  -5.1840  -5.1759  -5.1738
    -5.1661  -5.1595  -5.1408  -5.0943  -5.0811  -5.0769  -5.0684  -5.0572
    -5.0252  -5.0231  -5.0212  -4.9637  -4.9540  -4.9420  -4.9361  -4.9250
    -4.8616  -4.8392  -4.8236  -4.8035  -4.8009  -4.7993  -4.6558  -4.6449
    -4.6408  -4.6364  -4.6165  -4.5981  -4.5278  -4.5080  -4.4784  -4.4649
    -4.4520  -4.3763  -4.3649  -4.3548  -4.3513  -4.3424  -4.3236  -4.3043
    -4.1938  -4.1626  -4.1569  -4.1364  -4.1202  -4.0686  -4.0518  -4.0366
    -4.0362  -4.0121  -3.9607  -3.9553  -3.9114  -3.8996  -3.8985  -3.8652
    -3.8543  -3.8531  -3.8493  -3.8063  -3.7990  -3.7686  -3.7361  -3.6525
    -3.6481  -3.5746  -3.5741  -3.5690  -3.5662  -3.5640  -3.5563  -3.5450
    -3.5278  -3.5080  -3.4805  -3.4723  -3.4667  -3.3896  -3.3835  -3.3588
    -3.3445  -3.2516  -3.2458  -3.2349  -3.2326  -3.2294  -3.2248  -3.2224
    -3.2145  -3.1608  -3.1368  -3.1319  -3.1286  -3.1246  -3.1226  -3.0876
    -3.0773  -3.0519  -3.0103  -3.0060  -2.9941  -2.9635  -2.9268  -2.8981
    -2.8934  -2.8905  -2.8807  -2.8682  -2.8383  -2.7692  -2.7637  -2.7556
    -2.7338  -2.7128  -2.7057  -2.6581  -2.6495  -2.6483  -2.6473  -2.5909
    -2.4598  -2.4305  -2.4265  -2.4208  -2.4179  -2.0765  -1.9627  -0.9398
    -0.9321  -0.9081  -0.8196  -0.4927  -0.4630  -0.3309  -0.3209  -0.3046
    -0.3043   0.6667   0.6977

          k = 0.0433-0.0250 0.0000 (101872 PWs)   bands (ev):

  -106.2583-106.1455-106.1357-106.1292-106.1242-106.0973-106.0938-106.0919
  -106.0896-106.0888-106.0882-106.0869-106.0860-106.0856-106.0853-106.0833
  -106.0821-106.0802-106.0793-106.0788-106.0783-106.0765-106.0758-106.0750
  -106.0742-106.0733-106.0727-106.0719-106.0715-106.0707-106.0702-106.0688
   -57.6236 -57.6170 -57.5531 -57.5383 -57.5328 -57.5301 -57.5238 -57.5209
   -57.5162 -57.5140 -57.5094 -57.5080 -57.5060 -57.5016 -57.5011 -57.4982
   -57.4946 -57.4926 -57.4894 -57.4858 -57.4856 -57.4814 -57.4798 -57.4766
   -57.4759 -57.4651 -57.4618 -57.4584 -57.4568 -57.4513 -57.4497 -57.4434
   -57.4361 -57.4340 -57.4305 -57.4266 -57.4254 -57.4239 -57.4204 -57.4166
   -57.4142 -57.4114 -57.4110 -57.4094 -57.4081 -57.4062 -57.4050 -57.4043
   -57.4016 -57.3996 -57.3971 -57.3961 -57.3928 -57.3913 -57.3883 -57.3871
   -57.3867 -57.3850 -57.3795 -57.3782 -57.3747 -57.3742 -57.3729 -57.3668
   -57.3587 -57.3095 -57.2999 -57.2967 -57.2762 -57.2676 -57.2657 -57.2594
   -57.2553 -57.2495 -57.2451 -57.2435 -57.2418 -57.2414 -57.2377 -57.2363
   -57.2343 -57.2293 -57.2247 -57.2157 -57.2137 -57.2123 -57.2115 -57.2109
   -57.2105 -57.2095 -57.2094 -57.2084 -57.2070 -57.2060 -57.2057 -57.2043
   -26.3323 -24.5158 -21.8460 -21.8036 -16.7118 -14.1295 -12.1456 -10.9044
    -9.4008  -9.2082  -8.9157  -8.5384  -8.4581  -8.4375  -8.1391  -8.0212
    -7.6164  -7.5982  -7.5225  -7.2339  -7.2186  -6.9261  -6.9114  -6.8086
    -6.6970  -6.6845  -6.6758  -6.6651  -6.6607  -6.6581  -6.5838  -6.5784
    -6.5679  -6.5643  -6.5307  -6.4750  -6.4709  -6.4663  -6.4616  -6.4530
    -6.4497  -6.2741  -6.1684  -6.1631  -6.1533  -6.1524  -6.0159  -5.9757
    -5.9644  -5.9619  -5.9580  -5.9280  -5.8838  -5.8735  -5.7695  -5.7483
    -5.7405  -5.7226  -5.7177  -5.7115  -5.7083  -5.6899  -5.6717  -5.4471
    -5.4274  -5.3090  -5.2850  -5.2101  -5.2014  -5.1916  -5.1805  -5.1701
    -5.1673  -5.1488  -5.1414  -5.0937  -5.0821  -5.0759  -5.0687  -5.0543
    -5.0250  -5.0221  -5.0210  -4.9673  -4.9571  -4.9407  -4.9389  -4.9223
    -4.8836  -4.8237  -4.8174  -4.8084  -4.8009  -4.7962  -4.6688  -4.6398
    -4.6381  -4.6308  -4.6148  -4.5990  -4.5280  -4.5090  -4.4866  -4.4615
    -4.4219  -4.3815  -4.3567  -4.3546  -4.3447  -4.3413  -4.3103  -4.3035
    -4.2284  -4.1626  -4.1378  -4.1358  -4.1286  -4.0809  -4.0613  -4.0381
    -4.0315  -4.0038  -3.9725  -3.9580  -3.9147  -3.9008  -3.8929  -3.8639
    -3.8570  -3.8565  -3.8455  -3.8247  -3.7980  -3.7499  -3.7358  -3.6492
    -3.6453  -3.5759  -3.5723  -3.5705  -3.5662  -3.5609  -3.5583  -3.5430
    -3.5093  -3.5034  -3.4949  -3.4823  -3.4604  -3.3875  -3.3739  -3.3675
    -3.3387  -3.2534  -3.2474  -3.2360  -3.2343  -3.2265  -3.2260  -3.2228
    -3.2207  -3.1617  -3.1397  -3.1301  -3.1294  -3.1257  -3.1216  -3.0847
    -3.0793  -3.0508  -3.0251  -3.0045  -2.9761  -2.9618  -2.9293  -2.8969
    -2.8925  -2.8909  -2.8781  -2.8714  -2.8512  -2.7702  -2.7651  -2.7552
    -2.7318  -2.7152  -2.7054  -2.6612  -2.6493  -2.6479  -2.6406  -2.5946
    -2.4562  -2.4307  -2.4248  -2.4219  -2.4155  -2.0708  -1.9750  -0.9445
    -0.9226  -0.9127  -0.8205  -0.5002  -0.4521  -0.3248  -0.3192  -0.3076
    -0.3062   0.6509   0.7248

          k =-0.0433-0.0250 0.0000 (101872 PWs)   bands (ev):

  -106.2583-106.1455-106.1357-106.1292-106.1242-106.0973-106.0938-106.0920
  -106.0898-106.0887-106.0877-106.0871-106.0861-106.0857-106.0852-106.0834
  -106.0821-106.0802-106.0795-106.0786-106.0780-106.0772-106.0751-106.0750
  -106.0743-106.0736-106.0726-106.0718-106.0714-106.0707-106.0703-106.0687
   -57.6238 -57.6168 -57.5539 -57.5367 -57.5324 -57.5293 -57.5232 -57.5200
   -57.5161 -57.5121 -57.5100 -57.5083 -57.5072 -57.5050 -57.5015 -57.4987
   -57.4941 -57.4926 -57.4925 -57.4874 -57.4860 -57.4808 -57.4797 -57.4761
   -57.4737 -57.4668 -57.4609 -57.4573 -57.4564 -57.4520 -57.4467 -57.4422
   -57.4347 -57.4332 -57.4314 -57.4299 -57.4234 -57.4217 -57.4202 -57.4183
   -57.4159 -57.4117 -57.4108 -57.4089 -57.4077 -57.4071 -57.4049 -57.4043
   -57.4027 -57.4005 -57.3973 -57.3959 -57.3921 -57.3911 -57.3881 -57.3875
   -57.3865 -57.3857 -57.3810 -57.3783 -57.3739 -57.3733 -57.3722 -57.3670
   -57.3587 -57.3095 -57.2997 -57.2970 -57.2754 -57.2681 -57.2677 -57.2577
   -57.2525 -57.2489 -57.2473 -57.2454 -57.2441 -57.2410 -57.2371 -57.2341
   -57.2329 -57.2294 -57.2263 -57.2151 -57.2138 -57.2126 -57.2114 -57.2108
   -57.2101 -57.2097 -57.2093 -57.2087 -57.2069 -57.2062 -57.2056 -57.2043
   -26.3323 -24.5158 -21.8460 -21.8036 -16.7118 -14.1295 -12.1456 -10.9044
    -9.4008  -9.2081  -8.9157  -8.5377  -8.4589  -8.4378  -8.1389  -8.0207
    -7.6175  -7.5979  -7.5223  -7.2355  -7.2171  -6.9255  -6.9103  -6.8066
    -6.6925  -6.6840  -6.6806  -6.6636  -6.6615  -6.6610  -6.5965  -6.5778
    -6.5741  -6.5662  -6.5270  -6.4767  -6.4719  -6.4627  -6.4555  -6.4523
    -6.4451  -6.2749  -6.1626  -6.1617  -6.1537  -6.1441  -6.0139  -5.9993
    -5.9607  -5.9602  -5.9383  -5.9290  -5.8853  -5.8727  -5.7796  -5.7489
    -5.7461  -5.7258  -5.7195  -5.7115  -5.7087  -5.6828  -5.6724  -5.4471
    -5.4286  -5.3080  -5.2829  -5.2039  -5.1967  -5.1950  -5.1807  -5.1704
    -5.1687  -5.1562  -5.1371  -5.0953  -5.0801  -5.0771  -5.0671  -5.0490
    -5.0264  -5.0233  -5.0220  -4.9686  -4.9569  -4.9443  -4.9356  -4.9287
    -4.8700  -4.8298  -4.8221  -4.8026  -4.8009  -4.8000  -4.6638  -4.6426
    -4.6383  -4.6340  -4.6166  -4.5986  -4.5274  -4.5082  -4.4903  -4.4642
    -4.4170  -4.3803  -4.3650  -4.3569  -4.3459  -4.3429  -4.3136  -4.3044
    -4.2200  -4.1631  -4.1378  -4.1349  -4.1174  -4.0813  -4.0650  -4.0372
    -4.0339  -4.0047  -3.9650  -3.9582  -3.9179  -3.9002  -3.8943  -3.8651
    -3.8549  -3.8513  -3.8488  -3.8231  -3.7952  -3.7558  -3.7324  -3.6506
    -3.6478  -3.5745  -3.5719  -3.5692  -3.5670  -3.5626  -3.5568  -3.5422
    -3.5293  -3.5077  -3.4810  -3.4767  -3.4619  -3.3902  -3.3810  -3.3593
    -3.3428  -3.2526  -3.2423  -3.2363  -3.2339  -3.2293  -3.2253  -3.2206
    -3.2200  -3.1629  -3.1370  -3.1342  -3.1285  -3.1238  -3.1218  -3.0867
    -3.0774  -3.0514  -3.0195  -3.0060  -2.9855  -2.9620  -2.9267  -2.8959
    -2.8935  -2.8912  -2.8803  -2.8668  -2.8444  -2.7707  -2.7646  -2.7549
    -2.7347  -2.7113  -2.7070  -2.6592  -2.6531  -2.6469  -2.6430  -2.5926
    -2.4578  -2.4307  -2.4261  -2.4219  -2.4168  -2.0729  -1.9666  -0.9440
    -0.9246  -0.9141  -0.8204  -0.4962  -0.4573  -0.3280  -0.3192  -0.3064
    -0.3050   0.6593   0.7131

     the Fermi energy is    -0.8380 ev

!    total energy              =   -8984.02434551 Ry
     Harris-Foulkes estimate   =   -8984.02434537 Ry
     estimated scf accuracy    <       0.00000054 Ry

     The total energy is the sum of the following terms:

     one-electron contribution =  -81925.09890193 Ry
     hartree contribution      =   40792.75897495 Ry
     xc contribution           =    -861.56723775 Ry
     ewald contribution        =   33009.91540760 Ry
     smearing contrib. (-TS)   =      -0.03258839 Ry

     convergence has been achieved in  20 iterations

     Forces acting on atoms (Ry/au):


     negative rho (up, down):  4.030E-03 0.000E+00
     atom    1 type  1   force =    -0.00010403    0.00007003   -0.01186236
     atom    2 type  1   force =    -0.00002168   -0.00027531    0.01207436
     atom    3 type  1   force =     0.00007065   -0.00014619   -0.01270536
     atom    4 type  1   force =    -0.00116876   -0.00221043    0.01042054
     atom    5 type  1   force =     0.00007148    0.00019538   -0.01272685
     atom    6 type  1   force =    -0.00157509    0.00026485    0.01101991
     atom    7 type  1   force =    -0.00002224   -0.00009596   -0.01167271
     atom    8 type  1   force =    -0.00018638    0.00005711    0.01213163
     atom    9 type  1   force =     0.00011507    0.00006538   -0.01169607
     atom   10 type  1   force =     0.00009600   -0.00012948    0.01204174
     atom   11 type  1   force =    -0.00006330   -0.00057661   -0.01247360
     atom   12 type  1   force =     0.00165501   -0.00310089    0.01037751
     atom   13 type  1   force =    -0.00329215   -0.00150569   -0.01168770
     atom   14 type  1   force =     0.00320115   -0.00105864   -0.00562918
     atom   15 type  1   force =    -0.00031499    0.00006377   -0.01276923
     atom   16 type  1   force =    -0.00129948    0.00163328    0.01050412
     atom   17 type  1   force =    -0.00017122   -0.00001859   -0.01261984
     atom   18 type  1   force =    -0.00005230    0.00006518    0.01180665
     atom   19 type  1   force =     0.00005896   -0.00020837   -0.01301361
     atom   20 type  1   force =     0.00019670   -0.00010645    0.01200978
     atom   21 type  1   force =     0.00344888   -0.00209821   -0.01222612
     atom   22 type  1   force =     0.00373770    0.00012648    0.01005295
     atom   23 type  1   force =    -0.00033300    0.00364569   -0.01153419
     atom   24 type  1   force =     0.00156609    0.00248514    0.01029054
     atom   25 type  1   force =     0.00016302    0.00008876   -0.01260721
     atom   26 type  1   force =    -0.00008113    0.00004600    0.01193276
     atom   27 type  1   force =    -0.00006657    0.00005764   -0.01098713
     atom   28 type  1   force =    -0.00012095    0.00007482    0.01196638
     atom   29 type  1   force =     0.00026598    0.00000849   -0.01289301
     atom   30 type  1   force =     0.00031507   -0.00005425    0.01204681
     atom   31 type  1   force =     0.00054860    0.00037406   -0.01240938
     atom   32 type  1   force =     0.00030320    0.00020766    0.01200578
     atom   33 type  2   force =    -0.03020765    0.01411055    0.00593768
     atom   34 type  2   force =    -0.01082987   -0.09793131    0.00679301
     atom   35 type  2   force =    -0.95818761   -0.04386905    0.72323271
     atom   36 type  2   force =     0.04234691   -0.04303815    0.39333356
     atom   37 type  3   force =     0.02380822    0.03005105   -0.02294868
     atom   38 type  3   force =     0.01466990    0.15620444   -0.03567222
     atom   39 type  3   force =     0.97844709    0.03055413   -0.72185650
     atom   40 type  3   force =    -0.04259211    0.06572191   -0.45964820
     atom   41 type  3   force =    -0.00267808   -0.14336707    0.08940447
     atom   42 type  4   force =    -0.02848650   -0.03344497    0.01829596
     atom   43 type  4   force =    -0.01768679    0.01366849    0.01422267
     atom   44 type  4   force =     0.00228533    0.00059227    0.00049835
     atom   45 type  4   force =    -0.00406395    0.00392176   -0.03363313
     atom   46 type  4   force =     0.01683421   -0.00167377    0.00866719
     atom   47 type  4   force =     0.00940059    0.05055506    0.04420522

     Total force =     1.838253     Total SCF correction =     0.002529
 !ASE

     Writing output data file calc.save
     Check: negative starting charge=   -0.002296
     NEW-OLD atomic charge density approx. for the potential
     Check: negative starting charge=   -0.002357

     negative rho (up, down):  4.654E-03 0.000E+00

     total cpu time spent up to now is     6308.2 secs

     per-process dynamical memory:   582.7 Mb

     Self-consistent Calculation

     iteration #  1     ecut=    40.42 Ry     beta=0.20
     Davidson diagonalization with overlap
     ethr =  1.56E-10,  avg # of iterations = 12.0

     negative rho (up, down):  5.152E-03 0.000E+00

     total cpu time spent up to now is     6735.0 secs

     total energy              =   -8984.19333692 Ry
     Harris-Foulkes estimate   =   -8984.19942752 Ry
     estimated scf accuracy    <       0.05297562 Ry

     iteration #  2     ecut=    40.42 Ry     beta=0.20
     Davidson diagonalization with overlap
     ethr =  8.05E-06,  avg # of iterations =  1.0

     negative rho (up, down):  1.576E-02 0.000E+00

     total cpu time spent up to now is     6839.9 secs

     total energy              =   -8984.17519584 Ry
     Harris-Foulkes estimate   =   -8984.19354280 Ry
     estimated scf accuracy    <       0.03782497 Ry

     iteration #  3     ecut=    40.42 Ry     beta=0.20
     Davidson diagonalization with overlap
     ethr =  5.75E-06,  avg # of iterations =  3.0

     negative rho (up, down):  1.521E-02 0.000E+00

     total cpu time spent up to now is     6959.5 secs

     total energy              =   -8984.18014584 Ry
     Harris-Foulkes estimate   =   -8984.18036841 Ry
     estimated scf accuracy    <       0.00354351 Ry

     iteration #  4     ecut=    40.42 Ry     beta=0.20
     Davidson diagonalization with overlap
     ethr =  5.39E-07,  avg # of iterations =  2.2

     negative rho (up, down):  1.765E-02 0.000E+00

     total cpu time spent up to now is     7076.6 secs

     total energy              =   -8984.17973864 Ry
     Harris-Foulkes estimate   =   -8984.18023844 Ry
     estimated scf accuracy    <       0.00256438 Ry

     iteration #  5     ecut=    40.42 Ry     beta=0.20
     Davidson diagonalization with overlap
     ethr =  3.90E-07,  avg # of iterations =  4.0

     negative rho (up, down):  1.782E-02 0.000E+00

     total cpu time spent up to now is     7199.2 secs

     total energy              =   -8984.17976682 Ry
     Harris-Foulkes estimate   =   -8984.17988970 Ry
     estimated scf accuracy    <       0.00128929 Ry

     iteration #  6     ecut=    40.42 Ry     beta=0.20
     Davidson diagonalization with overlap
     ethr =  1.96E-07,  avg # of iterations =  2.0

     negative rho (up, down):  1.891E-02 0.000E+00

     total cpu time spent up to now is     7313.5 secs

     total energy              =   -8984.17958259 Ry
     Harris-Foulkes estimate   =   -8984.17977546 Ry
     estimated scf accuracy    <       0.00102319 Ry

     iteration #  7     ecut=    40.42 Ry     beta=0.20
     Davidson diagonalization with overlap
     ethr =  1.56E-07,  avg # of iterations =  3.2

     negative rho (up, down):  1.695E-02 0.000E+00

     total cpu time spent up to now is     7430.2 secs

     total energy              =   -8984.17950349 Ry
     Harris-Foulkes estimate   =   -8984.17962748 Ry
     estimated scf accuracy    <       0.00069779 Ry

     iteration #  8     ecut=    40.42 Ry     beta=0.20
     Davidson diagonalization with overlap
     ethr =  1.06E-07,  avg # of iterations =  3.0

     negative rho (up, down):  1.483E-02 0.000E+00

     total cpu time spent up to now is     7541.8 secs

     total energy              =   -8984.17936989 Ry
     Harris-Foulkes estimate   =   -8984.17952494 Ry
     estimated scf accuracy    <       0.00062467 Ry

     iteration #  9     ecut=    40.42 Ry     beta=0.20
     Davidson diagonalization with overlap
     ethr =  9.49E-08,  avg # of iterations =  2.5

     negative rho (up, down):  1.233E-02 0.000E+00

     total cpu time spent up to now is     7655.1 secs

     total energy              =   -8984.17926318 Ry
     Harris-Foulkes estimate   =   -8984.17938343 Ry
     estimated scf accuracy    <       0.00048141 Ry

     iteration # 10     ecut=    40.42 Ry     beta=0.20
     Davidson diagonalization with overlap
     ethr =  7.32E-08,  avg # of iterations =  2.0

     negative rho (up, down):  6.344E-03 0.000E+00

     total cpu time spent up to now is     7764.2 secs

     total energy              =   -8984.17901850 Ry
     Harris-Foulkes estimate   =   -8984.17926806 Ry
     estimated scf accuracy    <       0.00034518 Ry

     iteration # 11     ecut=    40.42 Ry     beta=0.20
     Davidson diagonalization with overlap
     ethr =  5.25E-08,  avg # of iterations =  3.0

     negative rho (up, down):  4.540E-03 0.000E+00

     total cpu time spent up to now is     7884.1 secs

     total energy              =   -8984.17902288 Ry
     Harris-Foulkes estimate   =   -8984.17904932 Ry
     estimated scf accuracy    <       0.00013927 Ry

     iteration # 12     ecut=    40.42 Ry     beta=0.20
     Davidson diagonalization with overlap
     ethr =  2.12E-08,  avg # of iterations =  3.0

     negative rho (up, down):  2.844E-03 0.000E+00

     total cpu time spent up to now is     7999.3 secs

     total energy              =   -8984.17901738 Ry
     Harris-Foulkes estimate   =   -8984.17902612 Ry
     estimated scf accuracy    <       0.00006716 Ry

     iteration # 13     ecut=    40.42 Ry     beta=0.20
     Davidson diagonalization with overlap
     ethr =  1.02E-08,  avg # of iterations =  4.0

     negative rho (up, down):  2.662E-03 0.000E+00

     total cpu time spent up to now is     8118.5 secs

     total energy              =   -8984.17902040 Ry
     Harris-Foulkes estimate   =   -8984.17902221 Ry
     estimated scf accuracy    <       0.00002513 Ry

     iteration # 14     ecut=    40.42 Ry     beta=0.20
     Davidson diagonalization with overlap
     ethr =  3.82E-09,  avg # of iterations =  4.0

     negative rho (up, down):  2.676E-03 0.000E+00

     total cpu time spent up to now is     8248.8 secs

     total energy              =   -8984.17902016 Ry
     Harris-Foulkes estimate   =   -8984.17902324 Ry
     estimated scf accuracy    <       0.00001258 Ry

     iteration # 15     ecut=    40.42 Ry     beta=0.20
     Davidson diagonalization with overlap
     ethr =  1.91E-09,  avg # of iterations =  3.0

     negative rho (up, down):  2.814E-03 0.000E+00

     total cpu time spent up to now is     8369.4 secs

     total energy              =   -8984.17902045 Ry
     Harris-Foulkes estimate   =   -8984.17902086 Ry
     estimated scf accuracy    <       0.00000626 Ry

     iteration # 16     ecut=    40.42 Ry     beta=0.20
     Davidson diagonalization with overlap
     ethr =  9.51E-10,  avg # of iterations =  3.0

     negative rho (up, down):  2.888E-03 0.000E+00

     total cpu time spent up to now is     8485.7 secs

     total energy              =   -8984.17902004 Ry
     Harris-Foulkes estimate   =   -8984.17902064 Ry
     estimated scf accuracy    <       0.00000374 Ry

     iteration # 17     ecut=    40.42 Ry     beta=0.20
     Davidson diagonalization with overlap
     ethr =  5.69E-10,  avg # of iterations =  2.5

     negative rho (up, down):  3.252E-03 0.000E+00

     total cpu time spent up to now is     8594.0 secs

     total energy              =   -8984.17901867 Ry
     Harris-Foulkes estimate   =   -8984.17902010 Ry
     estimated scf accuracy    <       0.00000296 Ry

     iteration # 18     ecut=    40.42 Ry     beta=0.20
     Davidson diagonalization with overlap
     ethr =  4.50E-10,  avg # of iterations =  3.0

     negative rho (up, down):  3.518E-03 0.000E+00

     total cpu time spent up to now is     8725.4 secs

     total energy              =   -8984.17901814 Ry
     Harris-Foulkes estimate   =   -8984.17901892 Ry
     estimated scf accuracy    <       0.00000124 Ry

     iteration # 19     ecut=    40.42 Ry     beta=0.20
     Davidson diagonalization with overlap
     ethr =  1.88E-10,  avg # of iterations =  3.0

     negative rho (up, down):  3.972E-03 0.000E+00

     total cpu time spent up to now is     8822.2 secs

     End of self-consistent calculation

          k = 0.0000 0.0000 0.0000 (101779 PWs)   bands (ev):

  -106.4434-106.3515-106.3468-106.3370-106.3307-106.3283-106.3223-106.3197
  -106.3178-106.3171-106.3162-106.3159-106.3145-106.3140-106.3136-106.3120
  -106.3118-106.3107-106.3098-106.3092-106.3089-106.3076-106.3072-106.3063
  -106.3058-106.3052-106.3046-106.3038-106.3024-106.3024-106.3017-106.3003
   -57.8222 -57.8154 -57.7721 -57.7615 -57.7611 -57.7586 -57.7499 -57.7487
   -57.7391 -57.7369 -57.7340 -57.7323 -57.7317 -57.7294 -57.7272 -57.7256
   -57.7240 -57.7237 -57.7082 -57.7024 -57.6892 -57.6879 -57.6856 -57.6828
   -57.6804 -57.6790 -57.6778 -57.6763 -57.6757 -57.6740 -57.6730 -57.6714
   -57.6709 -57.6693 -57.6674 -57.6653 -57.6611 -57.6598 -57.6593 -57.6558
   -57.6546 -57.6546 -57.6466 -57.6462 -57.6445 -57.6442 -57.6287 -57.6274
   -57.6251 -57.6240 -57.6227 -57.6218 -57.6204 -57.6190 -57.6178 -57.6073
   -57.6061 -57.6037 -57.6015 -57.6012 -57.5986 -57.5974 -57.5970 -57.5824
   -57.5821 -57.5427 -57.5334 -57.5266 -57.5194 -57.5152 -57.5143 -57.5129
   -57.5004 -57.4972 -57.4940 -57.4878 -57.4861 -57.4855 -57.4835 -57.4827
   -57.4821 -57.4717 -57.4669 -57.4580 -57.4547 -57.4537 -57.4526 -57.4515
   -57.4507 -57.4502 -57.4466 -57.4452 -57.4448 -57.4437 -57.4430 -57.4412
   -24.2957 -23.5920 -22.1846 -21.6198 -16.6578 -14.3452 -12.5559 -11.5524
    -9.6787  -9.3194  -8.6642  -8.4566  -8.1827  -7.9208  -7.7768  -7.7633
    -7.7590  -7.7537  -7.7535  -7.7486  -7.7392  -7.5330  -7.2209  -7.2192
    -7.2148  -7.1769  -7.1745  -7.1736  -6.9746  -6.7864  -6.7706  -6.7685
    -6.7663  -6.7626  -6.7605  -6.5577  -6.5462  -6.5209  -6.5106  -6.4636
    -6.4603  -6.4565  -6.4487  -6.4474  -6.4453  -6.2924  -6.1101  -6.1083
    -6.0932  -6.0922  -6.0905  -6.0901  -6.0748  -6.0713  -6.0643  -6.0623
    -6.0603  -6.0582  -6.0162  -5.8563  -5.8527  -5.8504  -5.8489  -5.8431
    -5.8309  -5.5563  -5.5170  -5.5101  -5.5054  -5.3654  -5.3641  -5.3626
    -5.3597  -5.3583  -5.3573  -5.3447  -5.2456  -5.2156  -5.2050  -5.2014
    -5.2006  -5.1971  -5.1766  -5.1761  -5.1027  -5.0901  -5.0650  -5.0625
    -5.0598  -5.0555  -5.0540  -5.0513  -4.9811  -4.9800  -4.9683  -4.9650
    -4.9636  -4.9617  -4.9428  -4.9267  -4.9038  -4.9028  -4.9020  -4.8949
    -4.8914  -4.7620  -4.7238  -4.7173  -4.7164  -4.7140  -4.7060  -4.7000
    -4.6990  -4.6966  -4.6940  -4.6929  -4.6901  -4.5214  -4.5189  -4.5117
    -4.3745  -4.3614  -4.3488  -4.3459  -4.3440  -4.3412  -4.3275  -4.0528
    -4.0516  -4.0470  -4.0447  -4.0423  -4.0394  -3.8969  -3.8914  -3.8676
    -3.8660  -3.8653  -3.8512  -3.8335  -3.7962  -3.7892  -3.7720  -3.7237
    -3.7198  -3.7160  -3.7138  -3.7117  -3.7093  -3.6861  -3.6837  -3.6810
    -3.6760  -3.6755  -3.6737  -3.6704  -3.6688  -3.5100  -3.4780  -3.4732
    -3.4718  -3.4690  -3.4578  -3.3691  -3.3336  -3.3270  -3.3096  -3.2066
    -3.2050  -3.2039  -3.0920  -3.0566  -3.0494  -3.0453  -3.0420  -3.0411
    -3.0385  -3.0242  -3.0229  -2.9133  -2.8353  -2.8347  -2.8324  -2.8302
    -2.8293  -2.7134  -2.6143  -2.5778  -2.5767  -2.5733  -2.4800  -2.4789
    -2.4776  -1.9521  -1.9360  -1.9323  -1.9296  -1.9285  -1.7184  -0.5654
    -0.5608  -0.5601  -0.5562  -0.5554  -0.5550  -0.3668  -0.2804  -0.2753
    -0.2735   0.5828   0.5865

          k = 0.0000-0.0501 0.0000 (101872 PWs)   bands (ev):

  -106.4434-106.3515-106.3468-106.3370-106.3308-106.3283-106.3222-106.3198
  -106.3181-106.3170-106.3160-106.3156-106.3143-106.3142-106.3138-106.3120
  -106.3116-106.3107-106.3104-106.3092-106.3086-106.3076-106.3070-106.3064
  -106.3058-106.3052-106.3045-106.3039-106.3025-106.3022-106.3018-106.3002
   -57.8213 -57.8133 -57.7624 -57.7529 -57.7523 -57.7510 -57.7485 -57.7448
   -57.7407 -57.7395 -57.7377 -57.7372 -57.7367 -57.7343 -57.7270 -57.7251
   -57.7225 -57.7190 -57.7185 -57.7150 -57.7090 -57.7084 -57.7054 -57.7041
   -57.7005 -57.6940 -57.6843 -57.6793 -57.6771 -57.6716 -57.6649 -57.6596
   -57.6579 -57.6554 -57.6549 -57.6531 -57.6493 -57.6480 -57.6459 -57.6442
   -57.6434 -57.6410 -57.6387 -57.6370 -57.6344 -57.6336 -57.6328 -57.6306
   -57.6262 -57.6252 -57.6228 -57.6214 -57.6204 -57.6171 -57.6164 -57.6149
   -57.6134 -57.6121 -57.6084 -57.6055 -57.6021 -57.6015 -57.5997 -57.5909
   -57.5856 -57.5400 -57.5345 -57.5307 -57.5208 -57.5160 -57.5096 -57.5058
   -57.5009 -57.4995 -57.4971 -57.4924 -57.4882 -57.4862 -57.4835 -57.4803
   -57.4760 -57.4727 -57.4663 -57.4600 -57.4557 -57.4546 -57.4520 -57.4511
   -57.4495 -57.4486 -57.4468 -57.4464 -57.4446 -57.4439 -57.4430 -57.4411
   -24.2957 -23.5920 -22.1846 -21.6198 -16.6578 -14.3452 -12.5559 -11.5523
    -9.6783  -8.8718  -8.8343  -8.6457  -8.4554  -8.1831  -8.0059  -7.9934
    -7.7577  -7.5378  -7.4801  -7.4629  -7.2608  -7.2536  -7.0799  -7.0645
    -7.0641  -7.0634  -6.9817  -6.9750  -6.9612  -6.9109  -6.9058  -6.9032
    -6.9001  -6.7835  -6.7779  -6.7737  -6.7711  -6.7341  -6.7272  -6.5493
    -6.4704  -6.4555  -6.4522  -6.4476  -6.4300  -6.3777  -6.3617  -6.3604
    -6.3508  -6.3192  -6.2855  -6.2785  -6.2426  -6.1418  -6.1368  -6.0773
[...]
    -3.3962  -3.3396  -3.3352  -3.3314  -3.3311  -3.2964  -3.2075  -3.2072
    -3.1791  -3.1660  -3.0674  -3.0393  -3.0378  -3.0310  -3.0304  -2.9871
    -2.9813  -2.9801  -2.9067  -2.9026  -2.8960  -2.8414  -2.8386  -2.7941
    -2.7911  -2.7708  -2.7701  -2.6586  -2.6058  -2.6052  -2.5617  -2.5259
    -2.3958  -2.3183  -2.0515  -2.0314  -1.6635  -1.6626  -1.5366  -1.5308
    -1.5139  -1.2953  -0.5567  -0.5558  -0.4705  -0.4699  -0.1090   0.1241
     0.1367   0.6374   0.6773

          k = 0.0433-0.0250 0.0000 (101872 PWs)   bands (ev):

  -106.3177-106.3141-106.3137-106.3095-106.3084-106.3077-106.3066-106.3059
  -106.3049-106.3047-106.3043-106.3037-106.3033-106.3027-106.3025-106.3021
  -106.3016-106.3011-106.3008-106.3006-106.3003-106.3000-106.2996-106.2992
  -106.2990-106.2988-106.2983-106.2983-106.2979-106.2977-106.2973-106.2942
   -57.7350 -57.7337 -57.7336 -57.7314 -57.7233 -57.7218 -57.7198 -57.7190
   -57.7189 -57.7176 -57.7168 -57.7163 -57.7079 -57.7068 -57.7025 -57.7023
   -57.6942 -57.6940 -57.6936 -57.6932 -57.6844 -57.6841 -57.6838 -57.6836
   -57.6735 -57.6730 -57.6522 -57.6518 -57.6399 -57.6393 -57.6372 -57.6362
   -57.6361 -57.6341 -57.6321 -57.6316 -57.6197 -57.6190 -57.6184 -57.6181
   -57.6164 -57.6154 -57.6127 -57.6120 -57.6119 -57.6102 -57.6027 -57.6011
   -57.5983 -57.5980 -57.5978 -57.5976 -57.5951 -57.5949 -57.5917 -57.5909
   -57.5908 -57.5903 -57.5836 -57.5816 -57.5779 -57.5775 -57.5646 -57.5644
   -57.5636 -57.5633 -57.5532 -57.5529 -57.5368 -57.5353 -57.5327 -57.5324
   -57.5277 -57.5271 -57.5176 -57.5163 -57.5157 -57.5125 -57.5025 -57.5023
   -57.4877 -57.4871 -57.4822 -57.4801 -57.4795 -57.4768 -57.4761 -57.4737
   -57.4717 -57.4713 -57.4702 -57.4698 -57.4666 -57.4662 -57.4650 -57.4629
   -23.7304 -23.5339 -21.4475 -21.2189 -16.5509 -14.2805 -12.5168 -11.2794
    -9.6222  -8.9248  -8.9236  -8.3210  -8.1804  -8.1002  -8.0975  -7.9368
    -7.5969  -7.4827  -7.4810  -7.3137  -7.3130  -7.2617  -7.1551  -7.1546
    -7.1538  -7.1520  -6.9942  -6.9932  -6.9585  -6.9581  -6.9580  -6.9574
    -6.8122  -6.8120  -6.8112  -6.8108  -6.7888  -6.7536  -6.7527  -6.4793
    -6.4791  -6.4786  -6.4783  -6.4650  -6.4643  -6.4633  -6.4624  -6.4196
    -6.4181  -6.3810  -6.3807  -6.3525  -6.2274  -6.2273  -6.1461  -6.1456
    -6.1454  -6.1450  -6.1308  -6.1304  -6.0309  -5.7491  -5.7460  -5.7135
    -5.6013  -5.5973  -5.4383  -5.4370  -5.3994  -5.3952  -5.3950  -5.3918
    -5.3853  -5.3807  -5.3758  -5.3358  -5.3341  -5.2878  -5.2872  -5.2862
    -5.2860  -5.2852  -5.2840  -5.2258  -5.2244  -5.1600  -5.1589  -5.1291
    -5.1283  -5.1218  -5.1212  -5.1202  -5.1180  -4.9337  -4.8889  -4.8871
    -4.8865  -4.8846  -4.8837  -4.8835  -4.8396  -4.8389  -4.8385  -4.8363
    -4.7886  -4.7874  -4.7439  -4.7417  -4.5996  -4.5990  -4.5397  -4.5378
    -4.5146  -4.5137  -4.4608  -4.4603  -4.4591  -4.4589  -4.4261  -4.4252
    -4.2640  -4.2632  -4.1518  -4.1506  -4.1025  -4.1013  -4.1011  -4.0994
    -4.0965  -4.0950  -3.9488  -3.9241  -3.8857  -3.8126  -3.8110  -3.8006
    -3.7995  -3.7988  -3.7897  -3.7531  -3.6885  -3.6834  -3.6810  -3.6807
    -3.6781  -3.6770  -3.6725  -3.6561  -3.5306  -3.5285  -3.4938  -3.4875
    -3.3837  -3.3830  -3.3817  -3.3806  -3.3297  -3.3290  -3.3285  -3.3275
    -3.2528  -3.2518  -3.2314  -3.2302  -3.2299  -3.2247  -3.2106  -3.2088
    -3.1093  -3.1089  -3.0589  -3.0576  -3.0267  -3.0259  -3.0252  -3.0238
    -2.9821  -2.9804  -2.9608  -2.9601  -2.9081  -2.8918  -2.8908  -2.8712
    -2.8699  -2.7711  -2.7697  -2.7691  -2.7641  -2.7332  -2.7122  -2.6198
    -2.6188  -2.6187  -2.6184  -2.5012  -2.3941  -2.0946  -2.0802  -0.8844
    -0.8799  -0.8729  -0.8571  -0.5580  -0.5577  -0.5559  -0.5550  -0.4431
    -0.4322   0.5624   0.5954

          k =-0.0433-0.0250 0.0000 (101872 PWs)   bands (ev):

  -106.3177-106.3142-106.3135-106.3098-106.3084-106.3073-106.3065-106.3060
  -106.3051-106.3046-106.3040-106.3036-106.3034-106.3030-106.3026-106.3022
  -106.3014-106.3013-106.3009-106.3003-106.3000-106.2998-106.2996-106.2992
  -106.2990-106.2988-106.2987-106.2984-106.2978-106.2976-106.2973-106.2942
   -57.7351 -57.7349 -57.7321 -57.7315 -57.7235 -57.7213 -57.7199 -57.7195
   -57.7178 -57.7176 -57.7174 -57.7166 -57.7080 -57.7063 -57.7030 -57.7025
   -57.6948 -57.6942 -57.6933 -57.6929 -57.6845 -57.6842 -57.6837 -57.6835
   -57.6735 -57.6727 -57.6521 -57.6516 -57.6405 -57.6391 -57.6376 -57.6371
   -57.6348 -57.6344 -57.6320 -57.6317 -57.6194 -57.6190 -57.6184 -57.6181
   -57.6170 -57.6150 -57.6131 -57.6127 -57.6109 -57.6103 -57.6026 -57.6007
   -57.5988 -57.5984 -57.5978 -57.5975 -57.5951 -57.5945 -57.5922 -57.5908
   -57.5903 -57.5901 -57.5840 -57.5815 -57.5779 -57.5775 -57.5650 -57.5648
   -57.5630 -57.5630 -57.5541 -57.5526 -57.5359 -57.5347 -57.5334 -57.5325
   -57.5290 -57.5264 -57.5173 -57.5170 -57.5146 -57.5131 -57.5031 -57.5015
   -57.4883 -57.4870 -57.4814 -57.4812 -57.4787 -57.4774 -57.4752 -57.4735
   -57.4725 -57.4711 -57.4709 -57.4694 -57.4663 -57.4661 -57.4652 -57.4629
   -23.7304 -23.5339 -21.4475 -21.2189 -16.5509 -14.2805 -12.5168 -11.2794
    -9.6222  -8.9260  -8.9224  -8.3213  -8.1800  -8.0993  -8.0982  -7.9372
    -7.5967  -7.4833  -7.4804  -7.3144  -7.3126  -7.2614  -7.1550  -7.1546
    -7.1542  -7.1518  -6.9945  -6.9928  -6.9586  -6.9584  -6.9578  -6.9573
    -6.8130  -6.8120  -6.8111  -6.8104  -6.7888  -6.7534  -6.7528  -6.4793
    -6.4791  -6.4785  -6.4783  -6.4656  -6.4649  -6.4623  -6.4623  -6.4201
    -6.4176  -6.3811  -6.3804  -6.3530  -6.2279  -6.2267  -6.1462  -6.1459
    -6.1451  -6.1448  -6.1310  -6.1301  -6.0309  -5.7493  -5.7458  -5.7134
    -5.6014  -5.5974  -5.4383  -5.4369  -5.3976  -5.3952  -5.3946  -5.3928
    -5.3884  -5.3809  -5.3724  -5.3353  -5.3349  -5.2886  -5.2871  -5.2866
    -5.2853  -5.2848  -5.2842  -5.2255  -5.2248  -5.1603  -5.1587  -5.1294
    -5.1282  -5.1218  -5.1210  -5.1205  -5.1185  -4.9340  -4.8874  -4.8872
    -4.8867  -4.8854  -4.8849  -4.8830  -4.8398  -4.8389  -4.8378  -4.8365
    -4.7892  -4.7868  -4.7436  -4.7419  -4.5995  -4.5992  -4.5402  -4.5374
    -4.5146  -4.5134  -4.4605  -4.4599  -4.4594  -4.4592  -4.4262  -4.4247
    -4.2658  -4.2616  -4.1514  -4.1509  -4.1042  -4.1024  -4.1003  -4.0989
    -4.0958  -4.0934  -3.9434  -3.9263  -3.8902  -3.8130  -3.8106  -3.8014
    -3.7990  -3.7988  -3.7952  -3.7538  -3.6848  -3.6837  -3.6815  -3.6808
    -3.6779  -3.6756  -3.6735  -3.6525  -3.5321  -3.5276  -3.4927  -3.4871
    -3.3833  -3.3831  -3.3823  -3.3809  -3.3303  -3.3298  -3.3279  -3.3267
    -3.2533  -3.2514  -3.2317  -3.2281  -3.2281  -3.2279  -3.2117  -3.2084
    -3.1107  -3.1084  -3.0598  -3.0565  -3.0269  -3.0261  -3.0248  -3.0228
    -2.9828  -2.9799  -2.9609  -2.9602  -2.9074  -2.8922  -2.8904  -2.8717
    -2.8694  -2.7715  -2.7693  -2.7675  -2.7668  -2.7275  -2.7149  -2.6199
    -2.6190  -2.6184  -2.6184  -2.5059  -2.3955  -2.0957  -2.0754  -0.8836
    -0.8783  -0.8764  -0.8567  -0.5588  -0.5576  -0.5553  -0.5550  -0.4400
    -0.4356   0.5669   0.5890

          k =-0.0217 0.0375 0.0000 (101920 PWs)   bands (ev):

  -106.3176-106.3142-106.3136-106.3095-106.3084-106.3077-106.3064-106.3061
  -106.3050-106.3045-106.3043-106.3037-106.3033-106.3027-106.3025-106.3022
  -106.3014-106.3012-106.3009-106.3006-106.3002-106.2998-106.2996-106.2993
  -106.2991-106.2988-106.2985-106.2982-106.2979-106.2976-106.2973-106.2942
   -57.7390 -57.7315 -57.7311 -57.7287 -57.7281 -57.7237 -57.7190 -57.7167
   -57.7162 -57.7161 -57.7139 -57.7136 -57.7089 -57.7078 -57.7063 -57.7054
   -57.7040 -57.6959 -57.6949 -57.6939 -57.6852 -57.6840 -57.6817 -57.6668
   -57.6663 -57.6642 -57.6589 -57.6586 -57.6541 -57.6534 -57.6385 -57.6315
   -57.6312 -57.6299 -57.6277 -57.6236 -57.6228 -57.6195 -57.6179 -57.6174
   -57.6159 -57.6152 -57.6137 -57.6081 -57.6077 -57.6072 -57.6063 -57.6059
   -57.6049 -57.6019 -57.5979 -57.5975 -57.5947 -57.5926 -57.5917 -57.5887
   -57.5882 -57.5871 -57.5867 -57.5859 -57.5803 -57.5694 -57.5688 -57.5643
   -57.5631 -57.5614 -57.5588 -57.5446 -57.5440 -57.5352 -57.5333 -57.5305
   -57.5253 -57.5229 -57.5222 -57.5213 -57.5120 -57.5096 -57.5074 -57.4991
   -57.4899 -57.4846 -57.4831 -57.4813 -57.4782 -57.4769 -57.4754 -57.4741
   -57.4728 -57.4711 -57.4704 -57.4683 -57.4678 -57.4659 -57.4649 -57.4629
   -23.7304 -23.5339 -21.4475 -21.2189 -16.5509 -14.2805 -12.5168 -11.2794
    -9.6222  -9.0377  -8.5984  -8.5940  -8.3195  -8.1788  -7.9389  -7.6008
    -7.5835  -7.5505  -7.5472  -7.2817  -7.2788  -7.2598  -7.2045  -7.2035
    -7.1871  -7.1852  -7.0763  -6.9997  -6.9989  -6.9846  -6.9841  -6.9310
    -6.8878  -6.8213  -6.8206  -6.7892  -6.6614  -6.6597  -6.6317  -6.6309
    -6.5266  -6.5262  -6.5073  -6.4798  -6.4792  -6.4123  -6.4120  -6.3574
    -6.3531  -6.3492  -6.3388  -6.3371  -6.2980  -6.2972  -6.2915  -6.1486
    -6.0601  -6.0573  -6.0412  -6.0308  -5.9274  -5.9265  -5.7180  -5.6431
    -5.6379  -5.5939  -5.5609  -5.5593  -5.4455  -5.4442  -5.4181  -5.4164
    -5.4151  -5.4076  -5.3832  -5.3323  -5.3292  -5.3150  -5.3134  -5.3030
    -5.3009  -5.2996  -5.2706  -5.2696  -5.2343  -5.2297  -5.2082  -5.2073
    -5.1617  -5.0786  -5.0688  -5.0678  -5.0190  -4.9452  -4.9346  -4.9287
    -4.9252  -4.8626  -4.8436  -4.8163  -4.8076  -4.8054  -4.7628  -4.6772
    -4.6764  -4.6417  -4.6414  -4.6195  -4.6190  -4.5953  -4.5944  -4.5583
    -4.5323  -4.5312  -4.4523  -4.4518  -4.4437  -4.4430  -4.4112  -4.4083
    -4.2834  -4.2817  -4.1652  -4.1520  -4.1502  -4.1445  -4.1412  -4.0486
    -4.0435  -4.0247  -4.0211  -3.9578  -3.9494  -3.9401  -3.8884  -3.8267
    -3.7557  -3.7507  -3.7383  -3.7316  -3.6847  -3.6801  -3.6784  -3.6345
    -3.6315  -3.6305  -3.6235  -3.6085  -3.5531  -3.5504  -3.5480  -3.5428
    -3.5196  -3.5176  -3.4583  -3.3480  -3.3408  -3.3256  -3.3226  -3.3113
    -3.3099  -3.2791  -3.2789  -3.2503  -3.2355  -3.2343  -3.2050  -3.2023
    -3.1282  -3.1274  -3.1111  -3.1107  -3.0831  -3.0438  -3.0411  -3.0393
    -3.0387  -2.9671  -2.9654  -2.9252  -2.9208  -2.9179  -2.9046  -2.8770
    -2.8307  -2.8300  -2.7924  -2.7560  -2.7553  -2.7351  -2.7325  -2.5800
    -2.5410  -2.4547  -2.4200  -2.3907  -1.8228  -1.8222  -1.7320  -1.7304
    -1.6044  -1.5924  -0.8952  -0.7715  -0.7641   0.1645   0.1677   0.2951
     0.3013   0.3735   0.7026

          k = 0.0433 0.0000 0.0000 (101920 PWs)   bands (ev):

  -106.3177-106.3142-106.3136-106.3096-106.3084-106.3075-106.3065-106.3061
  -106.3049-106.3046-106.3042-106.3038-106.3033-106.3028-106.3026-106.3022
  -106.3015-106.3011-106.3009-106.3005-106.3000-106.2999-106.2996-106.2992
  -106.2991-106.2987-106.2986-106.2983-106.2978-106.2976-106.2973-106.2942
   -57.7391 -57.7318 -57.7313 -57.7284 -57.7278 -57.7237 -57.7183 -57.7173
   -57.7163 -57.7160 -57.7136 -57.7133 -57.7091 -57.7083 -57.7060 -57.7051
   -57.7044 -57.6962 -57.6947 -57.6940 -57.6853 -57.6839 -57.6817 -57.6668
   -57.6663 -57.6641 -57.6588 -57.6587 -57.6539 -57.6537 -57.6386 -57.6314
   -57.6312 -57.6292 -57.6284 -57.6233 -57.6229 -57.6201 -57.6177 -57.6174
   -57.6158 -57.6153 -57.6136 -57.6080 -57.6076 -57.6071 -57.6063 -57.6055
   -57.6053 -57.6017 -57.5980 -57.5978 -57.5949 -57.5923 -57.5919 -57.5887
   -57.5879 -57.5871 -57.5868 -57.5860 -57.5803 -57.5692 -57.5690 -57.5644
   -57.5630 -57.5607 -57.5594 -57.5447 -57.5441 -57.5347 -57.5329 -57.5310
   -57.5246 -57.5239 -57.5223 -57.5210 -57.5123 -57.5089 -57.5078 -57.4990
   -57.4901 -57.4843 -57.4836 -57.4812 -57.4782 -57.4768 -57.4747 -57.4744
   -57.4728 -57.4717 -57.4707 -57.4680 -57.4675 -57.4659 -57.4651 -57.4629
   -23.7304 -23.5339 -21.4475 -21.2189 -16.5509 -14.2805 -12.5168 -11.2794
    -9.6222  -9.0378  -8.5976  -8.5948  -8.3195  -8.1788  -7.9389  -7.6003
    -7.5835  -7.5506  -7.5479  -7.2817  -7.2791  -7.2595  -7.2043  -7.2036
    -7.1864  -7.1860  -7.0762  -6.9996  -6.9992  -6.9844  -6.9843  -6.9309
    -6.8879  -6.8210  -6.8208  -6.7894  -6.6609  -6.6601  -6.6315  -6.6310
    -6.5265  -6.5263  -6.5072  -6.4796  -6.4793  -6.4122  -6.4119  -6.3568
    -6.3531  -6.3504  -6.3378  -6.3374  -6.2980  -6.2975  -6.2914  -6.1485
    -6.0602  -6.0573  -6.0410  -6.0308  -5.9274  -5.9265  -5.7171  -5.6422
    -5.6400  -5.5942  -5.5607  -5.5596  -5.4454  -5.4440  -5.4180  -5.4167
    -5.4148  -5.4076  -5.3831  -5.3317  -5.3300  -5.3150  -5.3133  -5.3028
    -5.3006  -5.3003  -5.2703  -5.2694  -5.2344  -5.2297  -5.2082  -5.2076
    -5.1619  -5.0783  -5.0685  -5.0678  -5.0188  -4.9452  -4.9348  -4.9274
    -4.9267  -4.8626  -4.8437  -4.8163  -4.8069  -4.8063  -4.7629  -4.6771
    -4.6765  -4.6416  -4.6413  -4.6193  -4.6192  -4.5949  -4.5948  -4.5585
    -4.5319  -4.5315  -4.4523  -4.4518  -4.4434  -4.4432  -4.4103  -4.4092
    -4.2828  -4.2818  -4.1652  -4.1524  -4.1505  -4.1436  -4.1424  -4.0474
    -4.0438  -4.0228  -4.0208  -3.9628  -3.9468  -3.9404  -3.8879  -3.8266
    -3.7564  -3.7507  -3.7397  -3.7293  -3.6856  -3.6805  -3.6778  -3.6331
    -3.6319  -3.6305  -3.6242  -3.6094  -3.5525  -3.5514  -3.5494  -3.5402
    -3.5192  -3.5183  -3.4583  -3.3480  -3.3407  -3.3242  -3.3236  -3.3109
    -3.3102  -3.2791  -3.2789  -3.2505  -3.2353  -3.2346  -3.2042  -3.2033
    -3.1281  -3.1274  -3.1111  -3.1107  -3.0831  -3.0436  -3.0414  -3.0394
    -3.0387  -2.9666  -2.9658  -2.9255  -2.9199  -2.9183  -2.9051  -2.8768
    -2.8307  -2.8294  -2.7926  -2.7561  -2.7554  -2.7342  -2.7333  -2.5796
    -2.5404  -2.4575  -2.4175  -2.3915  -1.8226  -1.8223  -1.7315  -1.7308
    -1.6041  -1.5928  -0.8952  -0.7705  -0.7651   0.1643   0.1681   0.2955
     0.3005   0.3739   0.7026

     the Fermi energy is    -1.2626 ev

!    total energy              =   -8984.23210238 Ry
     Harris-Foulkes estimate   =   -8984.23208987 Ry
     estimated scf accuracy    <       0.00000030 Ry

     The total energy is the sum of the following terms:

     one-electron contribution =  -82595.00359134 Ry
     hartree contribution      =   41123.52887510 Ry
     xc contribution           =    -861.95762114 Ry
     ewald contribution        =   33349.21406066 Ry
     smearing contrib. (-TS)   =      -0.01382566 Ry

     convergence has been achieved in   9 iterations

     Forces acting on atoms (Ry/au):


     negative rho (up, down):  3.889E-03 0.000E+00
     atom    1 type  1   force =    -0.00001398   -0.00001290   -0.02386876
     atom    2 type  1   force =    -0.00000993    0.00000486    0.02399314
     atom    3 type  1   force =     0.00000925    0.00006443   -0.02394160
     atom    4 type  1   force =    -0.00007308   -0.00023597    0.02378039
     atom    5 type  1   force =     0.00009552   -0.00003396   -0.02410027
     atom    6 type  1   force =    -0.00034655    0.00011313    0.02379380
     atom    7 type  1   force =    -0.00001718    0.00001848   -0.02393481
     atom    8 type  1   force =     0.00004746   -0.00003277    0.02411153
     atom    9 type  1   force =    -0.00001270   -0.00001562   -0.02397367
     atom   10 type  1   force =     0.00002551    0.00004751    0.02400500
     atom   11 type  1   force =     0.00000691   -0.00002055   -0.02403709
     atom   12 type  1   force =     0.00006797   -0.00014855    0.02396234
     atom   13 type  1   force =    -0.00008064   -0.00000048   -0.02361496
     atom   14 type  1   force =     0.00020278   -0.00032108    0.02352842
     atom   15 type  1   force =    -0.00000279   -0.00002217   -0.02423815
     atom   16 type  1   force =    -0.00045466    0.00049467    0.02340899
     atom   17 type  1   force =     0.00010836   -0.00004857   -0.02410727
     atom   18 type  1   force =     0.00000512   -0.00005173    0.02389431
     atom   19 type  1   force =    -0.00004185    0.00008270   -0.02415636
     atom   20 type  1   force =    -0.00000524   -0.00000168    0.02398174
     atom   21 type  1   force =     0.00004649    0.00001789   -0.02347924
     atom   22 type  1   force =     0.00023939    0.00004100    0.02369047
     atom   23 type  1   force =     0.00000526    0.00005553   -0.02346072
     atom   24 type  1   force =     0.00031937    0.00032985    0.02352630
     atom   25 type  1   force =    -0.00007648   -0.00001558   -0.02384648
     atom   26 type  1   force =    -0.00001891    0.00000623    0.02383114
     atom   27 type  1   force =     0.00002050   -0.00000957   -0.02373986
     atom   28 type  1   force =     0.00000945   -0.00000155    0.02393508
     atom   29 type  1   force =    -0.00006440   -0.00000786   -0.02407256
     atom   30 type  1   force =    -0.00003175   -0.00003473    0.02393310
     atom   31 type  1   force =     0.00001589   -0.00001422   -0.02377026
     atom   32 type  1   force =    -0.00003457   -0.00001669    0.02393758
     atom   33 type  2   force =    -0.00103570   -0.00031717   -0.00109659
     atom   34 type  2   force =     0.00023224   -0.00055455    0.00066637
     atom   35 type  2   force =     0.00014731   -0.00004307    0.00063692
     atom   36 type  2   force =    -0.00014410    0.00091285   -0.00081000
     atom   37 type  3   force =     0.00041678   -0.00011091   -0.00038796
     atom   38 type  3   force =     0.00029760    0.00012589   -0.00027702
     atom   39 type  3   force =     0.00096243   -0.00042231    0.00070230
     atom   40 type  3   force =    -0.00003971    0.00037552   -0.00015001
     atom   41 type  3   force =     0.00008383    0.00029400   -0.00017530
     atom   42 type  4   force =    -0.00031172   -0.00063216   -0.00012178
     atom   43 type  4   force =    -0.00033019    0.00071053    0.00100575
     atom   44 type  4   force =    -0.00027395    0.00019986   -0.00018973
     atom   45 type  4   force =    -0.00048497   -0.00017160   -0.00040530
     atom   46 type  4   force =     0.00135141    0.00002457    0.00105378
     atom   47 type  4   force =    -0.00081176   -0.00062152    0.00057730

     Total force =     0.135060     Total SCF correction =     0.001334
 !ASE

     Writing output data file calc.save
 
     init_run     :     79.85s CPU     92.17s WALL (       1 calls)
     electrons    :  49579.54s CPU  50289.20s WALL (       9 calls)
     update_pot   :     42.51s CPU     42.91s WALL (       8 calls)
     forces       :    375.21s CPU    376.05s WALL (       9 calls)

     Called by init_run:
     wfcinit      :     72.01s CPU     84.09s WALL (       1 calls)
     potinit      :      2.47s CPU      2.61s WALL (       1 calls)

     Called by electrons:
     c_bands      :  39040.48s CPU  39383.00s WALL (     186 calls)
     sum_band     :   7007.57s CPU   7018.68s WALL (     186 calls)
     v_of_rho     :     91.22s CPU     99.49s WALL (     194 calls)
     newd         :    515.68s CPU    523.11s WALL (     194 calls)
     mix_rho      :   2938.93s CPU   3279.00s WALL (     186 calls)

     Called by c_bands:
     init_us_2    :    302.33s CPU    302.33s WALL (    3820 calls)
     cegterg      :  36726.19s CPU  37069.82s WALL (    1860 calls)

     Called by *egterg:
     h_psi        :  25447.96s CPU  25487.23s WALL (    7728 calls)
     s_psi        :   2918.89s CPU   2918.32s WALL (    7728 calls)
     g_psi        :     38.90s CPU     38.85s WALL (    5858 calls)
     cdiaghg      :   2526.50s CPU   2524.98s WALL (    7628 calls)

     Called by h_psi:
     add_vuspsi   :   2962.66s CPU   2961.82s WALL (    7728 calls)

     General routines
     calbec       :   4230.98s CPU   4233.82s WALL (    9678 calls)
     fft          :    129.17s CPU    138.25s WALL (    3179 calls)
     ffts         :   1424.97s CPU   1764.37s WALL (  198052 calls)
     fftw         :  18765.89s CPU  18810.58s WALL ( 3501526 calls)
     interpolate  :     19.00s CPU     19.81s WALL (     380 calls)
     davcio       :      0.01s CPU      1.25s WALL (      10 calls)
 
     Parallel routines
     fft_scatter  :   5252.00s CPU   5510.76s WALL ( 3702757 calls)
 
     PWSCF        :    13h55m CPU       14h 7m WALL

 
   This run was terminated on:   8:10:59   7Apr2019            

=------------------------------------------------------------------------------=
   JOB DONE.
=------------------------------------------------------------------------------=
