  python dir          : /gpfs/pace1/project/chbe-medford/medford-share/gits/frozen/ben_espresso_8_24_2017/espresso
  espresso dir        : /nv/hp22/amedford6/medford-shared/builds/espresso/5.1.r11289-pybeef/intel-16.0+mvapich2-2.2+mkl-11.3/espresso-5.1.r11289-pybeef/bin
  pseudo dir          : /gpfs/pace1/project/chbe-medford/medford-share/data/pseudos/SSSP_eff_PBE
  ase-espresso py git : GITVERSION



     Program PWSCF v.5.1rc2 starts on  9Feb2019 at 22: 9:35 

     This program is part of the open-source Quantum ESPRESSO suite
     for quantum simulation of materials; please cite
         "P. Giannozzi et al., J. Phys.:Condens. Matter 21 395502 (2009);
          URL http://www.quantum-espresso.org", 
     in publications or presentations arising from this work. More details at
     http://www.quantum-espresso.org/quote

     Parallel version (MPI), running on    12 processors
     R & G space division:  proc/nbgrp/npool/nimage =      12
     Reading input from pw.inp
     Message from routine read_cards :
     DEPRECATED: no units specified in CELL_PARAMETERS card

     Current dimensions of program PWSCF are:
     Max number of different atomic species (ntypx) = 10
     Max number of k-points (npk) =  40000
     Max angular momentum in pseudopotentials (lmaxx) =  3

     IMPORTANT: XC functional enforced from input :
     Exchange-correlation      = PBE ( 1  4  3  4 0)
     Any further DFT definition will be discarded
     Please, verify this is what you really want


     Subspace diagonalization in iterative solution of the eigenvalue problem:
     a serial algorithm will be used

 
     Parallelization info
     --------------------
     sticks:   dense  smooth     PW     G-vecs:    dense   smooth      PW
     Min         835     410    107               181752    62152    8417
     Max         837     411    108               181759    62171    8432
     Sum       10033    4927   1285              2181051   745939  101037
 


     bravais-lattice index     =            0
     lattice parameter (alat)  =       1.8897  a.u.
     unit-cell volume          =   21473.7007 (a.u.)^3
     number of atoms/cell      =           48
     number of atomic types    =            4
     number of electrons       =       558.00
     number of Kohn-Sham states=          289
     kinetic-energy cutoff     =      40.4243  Ry
     charge density cutoff     =     330.7439  Ry
     convergence threshold     =      7.3E-07
     mixing beta               =       0.2000
     number of iterations used =            8  local-TF  mixing
     Exchange-correlation      = PBE ( 1  4  3  4 0)
     nstep                     =           50


     celldm(1)=   1.889726  celldm(2)=   0.000000  celldm(3)=   0.000000
     celldm(4)=   0.000000  celldm(5)=   0.000000  celldm(6)=   0.000000

     crystal axes: (cart. coord. in units of alat)
               a(1) = (  11.099314   0.000000   0.000000 )  
               a(2) = (  -5.549657   9.612288   0.000000 )  
               a(3) = (   0.000000   0.000000  29.825478 )  

     reciprocal axes: (cart. coord. in units 2 pi/alat)
               b(1) = (  0.090096  0.052017  0.000000 )  
               b(2) = (  0.000000  0.104034  0.000000 )  
               b(3) = (  0.000000  0.000000  0.033528 )  


     PseudoPot. # 1 for Pt read from file:
     /gpfs/pace1/project/chbe-medford/medford-share/data/pseudos/SSSP_eff_PBE/Pt.UPF
     MD5 check sum: f09d6de1a584b5a045c4fc126da2d0c4
     Pseudo is Ultrasoft + core correction, Zval = 16.0
     Generated by new atomic code, or converted to UPF format
     Using radial grid of  985 points,  6 beta functions with: 
                l(1) =   0
                l(2) =   0
                l(3) =   1
                l(4) =   1
                l(5) =   2
                l(6) =   2
     Q(r) pseudized with  8 coefficients,  rinner =    1.300   1.300   1.300
                                                       1.300   1.300

     PseudoPot. # 2 for O  read from file:
     /gpfs/pace1/project/chbe-medford/medford-share/data/pseudos/SSSP_eff_PBE/O.UPF
     MD5 check sum: 734c27235a0248c51dbae37a1fbe46ec
     Pseudo is Ultrasoft + core correction, Zval =  6.0
     Generated by new atomic code, or converted to UPF format
     Using radial grid of  737 points,  5 beta functions with: 
                l(1) =   0
                l(2) =   0
                l(3) =   1
                l(4) =   1
                l(5) =   2
     Q(r) pseudized with  8 coefficients,  rinner =    0.900   0.900   0.900
                                                       0.900   0.900

     PseudoPot. # 3 for C  read from file:
     /gpfs/pace1/project/chbe-medford/medford-share/data/pseudos/SSSP_eff_PBE/C.UPF
     MD5 check sum: d1aef80898a10debaa0f26306b886e00
     Pseudo is Ultrasoft + core correction, Zval =  4.0
     Generated by new atomic code, or converted to UPF format
     Using radial grid of  721 points,  4 beta functions with: 
                l(1) =   0
                l(2) =   0
                l(3) =   1
                l(4) =   1
     Q(r) pseudized with  8 coefficients,  rinner =    1.100   1.100   1.100


     PseudoPot. # 4 for  H read from file:
     /gpfs/pace1/project/chbe-medford/medford-share/data/pseudos/SSSP_eff_PBE/H.UPF
     MD5 check sum: 36633979392af7100e6f6632747262d3
     Pseudo is Ultrasoft, Zval =  1.0
     Generated using "atomic" code by A. Dal Corso  v.5.0.99 svn rev. 10869
     Using radial grid of  929 points,  2 beta functions with: 
                l(1) =   0
                l(2) =   0
     Q(r) pseudized with 0 coefficients 


     atomic species   valence    mass     pseudopotential
        Pt1           16.00   195.08000     Pt( 1.00)
        O1             6.00    15.99940     O ( 1.00)
        C1             4.00    12.01100     C ( 1.00)
        H1             1.00     1.00794      H( 1.00)

     No symmetry found



   Cartesian axes

     site n.     atom                  positions (alat units)
         1           Pt1 tau(   1) = (   0.0000000   0.0000000  10.0000000  )
         2           Pt1 tau(   2) = (   1.3874142   0.8010240  12.2656379  )
         3           Pt1 tau(   3) = (  -1.3874142   2.4030719  10.0000000  )
         4           Pt1 tau(   4) = (   0.0000000   3.2040959  12.2656379  )
         5           Pt1 tau(   5) = (  -2.7748284   4.8061438  10.0000000  )
         6           Pt1 tau(   6) = (  -1.3874142   5.6071678  12.2656379  )
         7           Pt1 tau(   7) = (  -4.1622426   7.2092157  10.0000000  )
         8           Pt1 tau(   8) = (  -2.7748284   8.0102397  12.2656379  )
         9           Pt1 tau(   9) = (   2.7748284   0.0000000  10.0000000  )
        10           Pt1 tau(  10) = (   4.1622426   0.8010240  12.2656379  )
        11           Pt1 tau(  11) = (   1.3874142   2.4030719  10.0000000  )
        12           Pt1 tau(  12) = (   2.7748284   3.2040959  12.2656379  )
        13           Pt1 tau(  13) = (   0.0000000   4.8061438  10.0000000  )
        14           Pt1 tau(  14) = (   1.3874142   5.6071678  12.2656379  )
        15           Pt1 tau(  15) = (  -1.3874142   7.2092157  10.0000000  )
        16           Pt1 tau(  16) = (   0.0000000   8.0102397  12.2656379  )
        17           Pt1 tau(  17) = (   5.5496569   0.0000000  10.0000000  )
        18           Pt1 tau(  18) = (   6.9370711   0.8010240  12.2656379  )
        19           Pt1 tau(  19) = (   4.1622426   2.4030719  10.0000000  )
        20           Pt1 tau(  20) = (   5.5496569   3.2040959  12.2656379  )
        21           Pt1 tau(  21) = (   2.7748284   4.8061438  10.0000000  )
        22           Pt1 tau(  22) = (   4.1622426   5.6071678  12.2656379  )
        23           Pt1 tau(  23) = (   1.3874142   7.2092157  10.0000000  )
        24           Pt1 tau(  24) = (   2.7748284   8.0102397  12.2656379  )
        25           Pt1 tau(  25) = (   8.3244853   0.0000000  10.0000000  )
        26           Pt1 tau(  26) = (   9.7118995   0.8010240  12.2656379  )
        27           Pt1 tau(  27) = (   6.9370711   2.4030719  10.0000000  )
        28           Pt1 tau(  28) = (   8.3244853   3.2040959  12.2656379  )
        29           Pt1 tau(  29) = (   5.5496569   4.8061438  10.0000000  )
        30           Pt1 tau(  30) = (   6.9370711   5.6071678  12.2656379  )
        31           Pt1 tau(  31) = (   4.1622426   7.2092157  10.0000000  )
        32           Pt1 tau(  32) = (   5.5496569   8.0102397  12.2656379  )
        33           O1  tau(  33) = (   5.6012000   7.7798056  16.9173101  )
        34           O1  tau(  34) = (   5.5500000   3.2040000  14.7656379  )
        35           O1  tau(  35) = (   5.6009000   2.7588933  16.9921854  )
        36           C1  tau(  36) = (   5.5872000   5.4913101  17.6961005  )
        37           C1  tau(  37) = (   5.5823000   5.0702607  16.2301796  )
        38           C1  tau(  38) = (   5.5826000   6.9996773  17.8681320  )
        39           C1  tau(  39) = (   5.5491000   7.5053549  19.2870728  )
        40           C1  tau(  40) = (   5.5796000   3.5674018  16.0746075  )
        41           H1  tau(  41) = (   6.4775000   5.0956822  18.1981482  )
        42           H1  tau(  42) = (   4.7027000   5.0892707  18.2034532  )
        43           H1  tau(  43) = (   6.4711000   5.4650101  15.7248535  )
        44           H1  tau(  44) = (   4.6911000   5.4679197  15.7316140  )
        45           H1  tau(  45) = (   4.6364000   7.1586467  19.7779890  )
        46           H1  tau(  46) = (   6.4285000   7.1436997  19.8254778  )
        47           H1  tau(  47) = (   5.5586000   8.5988201  19.2895353  )
        48           H1  tau(  48) = (   5.5481000   2.2291262  14.6571689  )

     number of k points=     4  Fermi-Dirac smearing, width (Ry)=  0.0073
                       cart. coord. in units 2pi/alat
        k(    1) = (   0.0000000   0.0000000   0.0000000), wk =   0.5000000
        k(    2) = (   0.0000000  -0.0520168   0.0000000), wk =   0.5000000
        k(    3) = (   0.0450478  -0.0260084   0.0000000), wk =   0.5000000
        k(    4) = (  -0.0450478  -0.0260084   0.0000000), wk =   0.5000000

     Dense  grid:  2181051 G-vectors     FFT dimensions: ( 125, 125, 360)

     Smooth grid:   745939 G-vectors     FFT dimensions: (  90,  90, 240)

     Largest allocated arrays     est. size (Mb)     dimensions
        Kohn-Sham Wavefunctions        34.33 Mb     (    7786,  289)
        NL pseudopotentials            79.72 Mb     (    7786,  671)
        Each V/rho on FFT grid          7.15 Mb     (  468750)
        Each G-vector array             1.39 Mb     (  181759)
        G-vector shells                 0.46 Mb     (   59830)
     Largest temporary arrays     est. size (Mb)     dimensions
        Auxiliary wavefunctions       137.34 Mb     (    7786, 1156)
        Each subspace H/S matrix       20.39 Mb     (    1156, 1156)
        Each <psi_i|beta_j> matrix      2.96 Mb     (     671,  289)
        Arrays for rho mixing          57.22 Mb     (  468750,    8)

     Initial potential from superposition of free atoms
     Check: negative starting charge=   -5.909509

     starting charge  541.99935, renormalised to  558.00000

     negative rho (up, down):  6.084E+00 0.000E+00
     Starting wfc are  424 randomized atomic wfcs

     total cpu time spent up to now is       85.8 secs

     per-process dynamical memory:   376.5 Mb

     Self-consistent Calculation

     iteration #  1     ecut=    40.42 Ry     beta=0.20
     Davidson diagonalization with overlap
     ethr =  1.00E-02,  avg # of iterations =  2.0

     negative rho (up, down):  5.983E+00 0.000E+00

     total cpu time spent up to now is      249.0 secs

     total energy              =   -6910.55768562 Ry
     Harris-Foulkes estimate   =   -6915.40785649 Ry
     estimated scf accuracy    <      72.21542971 Ry

     iteration #  2     ecut=    40.42 Ry     beta=0.20
     Davidson diagonalization with overlap
     ethr =  1.00E-02,  avg # of iterations =  1.0

     negative rho (up, down):  5.851E+00 0.000E+00

     total cpu time spent up to now is      380.3 secs

     total energy              =   -6900.30630969 Ry
     Harris-Foulkes estimate   =   -6910.92715518 Ry
     estimated scf accuracy    <      49.86920855 Ry

     iteration #  3     ecut=    40.42 Ry     beta=0.20
     Davidson diagonalization with overlap
     ethr =  8.94E-03,  avg # of iterations =  5.2

     negative rho (up, down):  5.906E+00 0.000E+00

     total cpu time spent up to now is      529.4 secs

     total energy              =   -6904.82160738 Ry
     Harris-Foulkes estimate   =   -6905.13452420 Ry
     estimated scf accuracy    <       5.32588544 Ry

     iteration #  4     ecut=    40.42 Ry     beta=0.20
     Davidson diagonalization with overlap
     ethr =  9.54E-04,  avg # of iterations =  5.5

     negative rho (up, down):  5.960E+00 0.000E+00

     total cpu time spent up to now is      675.2 secs

     total energy              =   -6904.94916418 Ry
     Harris-Foulkes estimate   =   -6905.14465711 Ry
     estimated scf accuracy    <       3.03729712 Ry

     iteration #  5     ecut=    40.42 Ry     beta=0.20
     Davidson diagonalization with overlap
     ethr =  5.44E-04,  avg # of iterations =  2.5

     negative rho (up, down):  6.090E+00 0.000E+00

     total cpu time spent up to now is      812.3 secs

     total energy              =   -6904.78120536 Ry
     Harris-Foulkes estimate   =   -6905.04301475 Ry
     estimated scf accuracy    <       3.28229703 Ry

     iteration #  6     ecut=    40.42 Ry     beta=0.20
     Davidson diagonalization with overlap
     ethr =  5.44E-04,  avg # of iterations =  4.5

     negative rho (up, down):  6.046E+00 0.000E+00

     total cpu time spent up to now is      952.2 secs

     total energy              =   -6904.58527874 Ry
     Harris-Foulkes estimate   =   -6905.01835616 Ry
     estimated scf accuracy    <       5.50954249 Ry

     iteration #  7     ecut=    40.42 Ry     beta=0.20
     Davidson diagonalization with overlap
     ethr =  5.44E-04,  avg # of iterations =  2.8

     negative rho (up, down):  6.075E+00 0.000E+00

     total cpu time spent up to now is     1092.1 secs

     total energy              =   -6904.66894273 Ry
     Harris-Foulkes estimate   =   -6904.74513702 Ry
     estimated scf accuracy    <       2.54741383 Ry

     iteration #  8     ecut=    40.42 Ry     beta=0.20
     Davidson diagonalization with overlap
     ethr =  4.57E-04,  avg # of iterations =  1.0

     negative rho (up, down):  6.217E+00 0.000E+00

     total cpu time spent up to now is     1222.0 secs

     total energy              =   -6904.62567256 Ry
     Harris-Foulkes estimate   =   -6904.71178936 Ry
     estimated scf accuracy    <       1.06163026 Ry

     iteration #  9     ecut=    40.42 Ry     beta=0.20
     Davidson diagonalization with overlap
     ethr =  1.90E-04,  avg # of iterations =  5.2

     negative rho (up, down):  6.251E+00 0.000E+00

     total cpu time spent up to now is     1366.7 secs

     total energy              =   -6904.64590874 Ry
     Harris-Foulkes estimate   =   -6904.68526993 Ry
     estimated scf accuracy    <       1.35507341 Ry

     iteration # 10     ecut=    40.42 Ry     beta=0.20
     Davidson diagonalization with overlap
     ethr =  1.90E-04,  avg # of iterations =  1.0

     negative rho (up, down):  6.221E+00 0.000E+00

     total cpu time spent up to now is     1496.9 secs

     total energy              =   -6904.62833382 Ry
     Harris-Foulkes estimate   =   -6904.65886930 Ry
     estimated scf accuracy    <       0.46101018 Ry

     iteration # 11     ecut=    40.42 Ry     beta=0.20
     Davidson diagonalization with overlap
     ethr =  8.26E-05,  avg # of iterations =  4.2

     negative rho (up, down):  6.146E+00 0.000E+00

     total cpu time spent up to now is     1636.0 secs

     total energy              =   -6904.62984845 Ry
     Harris-Foulkes estimate   =   -6904.65755284 Ry
     estimated scf accuracy    <       0.25374896 Ry

     iteration # 12     ecut=    40.42 Ry     beta=0.20
     Davidson diagonalization with overlap
     ethr =  4.55E-05,  avg # of iterations =  2.5

     negative rho (up, down):  6.011E+00 0.000E+00

     total cpu time spent up to now is     1765.3 secs

     total energy              =   -6904.60356844 Ry
     Harris-Foulkes estimate   =   -6904.63565142 Ry
     estimated scf accuracy    <       0.15317419 Ry

     iteration # 13     ecut=    40.42 Ry     beta=0.20
     Davidson diagonalization with overlap
     ethr =  2.75E-05,  avg # of iterations =  3.5

     negative rho (up, down):  5.932E+00 0.000E+00

     total cpu time spent up to now is     1907.9 secs

     total energy              =   -6904.59736343 Ry
     Harris-Foulkes estimate   =   -6904.60937738 Ry
     estimated scf accuracy    <       0.07557976 Ry

     iteration # 14     ecut=    40.42 Ry     beta=0.20
     Davidson diagonalization with overlap
     ethr =  1.35E-05,  avg # of iterations =  2.5

     negative rho (up, down):  5.827E+00 0.000E+00

     total cpu time spent up to now is     2042.9 secs

     total energy              =   -6904.58623457 Ry
     Harris-Foulkes estimate   =   -6904.59913857 Ry
     estimated scf accuracy    <       0.05568254 Ry

     iteration # 15     ecut=    40.42 Ry     beta=0.20
     Davidson diagonalization with overlap
     ethr =  9.98E-06,  avg # of iterations =  3.0

     negative rho (up, down):  5.762E+00 0.000E+00

     total cpu time spent up to now is     2179.3 secs

     total energy              =   -6904.58164159 Ry
     Harris-Foulkes estimate   =   -6904.58823695 Ry
     estimated scf accuracy    <       0.02733657 Ry

     iteration # 16     ecut=    40.42 Ry     beta=0.20
     Davidson diagonalization with overlap
     c_bands:  3 eigenvalues not converged
     ethr =  4.90E-06,  avg # of iterations = 11.0

     negative rho (up, down):  5.737E+00 0.000E+00

     total cpu time spent up to now is     2337.8 secs

     total energy              =   -6904.58003687 Ry
     Harris-Foulkes estimate   =   -6904.58328145 Ry
     estimated scf accuracy    <       0.01999754 Ry

     iteration # 17     ecut=    40.42 Ry     beta=0.20
     Davidson diagonalization with overlap
     ethr =  3.58E-06,  avg # of iterations =  3.2

     negative rho (up, down):  5.732E+00 0.000E+00

     total cpu time spent up to now is     2473.3 secs

     total energy              =   -6904.57753791 Ry
     Harris-Foulkes estimate   =   -6904.58038165 Ry
     estimated scf accuracy    <       0.01865440 Ry

     iteration # 18     ecut=    40.42 Ry     beta=0.20
     Davidson diagonalization with overlap
     ethr =  3.34E-06,  avg # of iterations =  1.2

     negative rho (up, down):  5.720E+00 0.000E+00

     total cpu time spent up to now is     2606.8 secs

     total energy              =   -6904.57666925 Ry
     Harris-Foulkes estimate   =   -6904.57800548 Ry
     estimated scf accuracy    <       0.00688307 Ry

     iteration # 19     ecut=    40.42 Ry     beta=0.20
     Davidson diagonalization with overlap
     ethr =  1.23E-06,  avg # of iterations =  7.0

     negative rho (up, down):  5.697E+00 0.000E+00

     total cpu time spent up to now is     2757.3 secs

     total energy              =   -6904.57628503 Ry
     Harris-Foulkes estimate   =   -6904.57709961 Ry
     estimated scf accuracy    <       0.00916944 Ry

     iteration # 20     ecut=    40.42 Ry     beta=0.20
     Davidson diagonalization with overlap
     ethr =  1.23E-06,  avg # of iterations =  2.0

     negative rho (up, down):  5.675E+00 0.000E+00

     total cpu time spent up to now is     2895.1 secs

     total energy              =   -6904.57576378 Ry
     Harris-Foulkes estimate   =   -6904.57649284 Ry
     estimated scf accuracy    <       0.00410128 Ry

     iteration # 21     ecut=    40.42 Ry     beta=0.20
     Davidson diagonalization with overlap
     ethr =  7.35E-07,  avg # of iterations =  2.2

     negative rho (up, down):  5.665E+00 0.000E+00

     total cpu time spent up to now is     3035.7 secs

     total energy              =   -6904.57599023 Ry
     Harris-Foulkes estimate   =   -6904.57592246 Ry
     estimated scf accuracy    <       0.00218744 Ry

     iteration # 22     ecut=    40.42 Ry     beta=0.20
     Davidson diagonalization with overlap
     ethr =  3.92E-07,  avg # of iterations =  7.0

     negative rho (up, down):  5.659E+00 0.000E+00

     total cpu time spent up to now is     3193.3 secs

     total energy              =   -6904.57603108 Ry
     Harris-Foulkes estimate   =   -6904.57615105 Ry
     estimated scf accuracy    <       0.00189144 Ry

     iteration # 23     ecut=    40.42 Ry     beta=0.20
     Davidson diagonalization with overlap
     ethr =  3.39E-07,  avg # of iterations =  3.5

     negative rho (up, down):  5.657E+00 0.000E+00

     total cpu time spent up to now is     3332.7 secs

     total energy              =   -6904.57604718 Ry
     Harris-Foulkes estimate   =   -6904.57606377 Ry
     estimated scf accuracy    <       0.00107570 Ry

     iteration # 24     ecut=    40.42 Ry     beta=0.20
     Davidson diagonalization with overlap
     ethr =  1.93E-07,  avg # of iterations =  7.5

     negative rho (up, down):  5.659E+00 0.000E+00

     total cpu time spent up to now is     3482.4 secs

     total energy              =   -6904.57608335 Ry
     Harris-Foulkes estimate   =   -6904.57613930 Ry
     estimated scf accuracy    <       0.00088074 Ry

     iteration # 25     ecut=    40.42 Ry     beta=0.20
     Davidson diagonalization with overlap
     ethr =  1.58E-07,  avg # of iterations =  2.0

     negative rho (up, down):  5.656E+00 0.000E+00

     total cpu time spent up to now is     3618.0 secs

     total energy              =   -6904.57597037 Ry
     Harris-Foulkes estimate   =   -6904.57610151 Ry
     estimated scf accuracy    <       0.00050927 Ry

     iteration # 26     ecut=    40.42 Ry     beta=0.20
     Davidson diagonalization with overlap
     ethr =  9.13E-08,  avg # of iterations = 10.5

     negative rho (up, down):  5.653E+00 0.000E+00

     total cpu time spent up to now is     3782.0 secs

     total energy              =   -6904.57600389 Ry
     Harris-Foulkes estimate   =   -6904.57604159 Ry
     estimated scf accuracy    <       0.00085334 Ry

     iteration # 27     ecut=    40.42 Ry     beta=0.20
     Davidson diagonalization with overlap
     ethr =  9.13E-08,  avg # of iterations =  1.0

     negative rho (up, down):  5.652E+00 0.000E+00

     total cpu time spent up to now is     3922.3 secs

     total energy              =   -6904.57595932 Ry
     Harris-Foulkes estimate   =   -6904.57600967 Ry
     estimated scf accuracy    <       0.00062094 Ry

     iteration # 28     ecut=    40.42 Ry     beta=0.20
     Davidson diagonalization with overlap
     ethr =  9.13E-08,  avg # of iterations =  2.8

     negative rho (up, down):  5.655E+00 0.000E+00

     total cpu time spent up to now is     4067.0 secs

     total energy              =   -6904.57593852 Ry
     Harris-Foulkes estimate   =   -6904.57597140 Ry
     estimated scf accuracy    <       0.00037403 Ry

     iteration # 29     ecut=    40.42 Ry     beta=0.20
     Davidson diagonalization with overlap
     ethr =  6.70E-08,  avg # of iterations = 10.2

     negative rho (up, down):  5.655E+00 0.000E+00

     total cpu time spent up to now is     4224.8 secs

     total energy              =   -6904.57598777 Ry
     Harris-Foulkes estimate   =   -6904.57599799 Ry
     estimated scf accuracy    <       0.00031285 Ry

     iteration # 30     ecut=    40.42 Ry     beta=0.20
     Davidson diagonalization with overlap
     ethr =  5.61E-08,  avg # of iterations =  1.0

     negative rho (up, down):  5.655E+00 0.000E+00

     total cpu time spent up to now is     4363.0 secs

     total energy              =   -6904.57595950 Ry
     Harris-Foulkes estimate   =   -6904.57598971 Ry
     estimated scf accuracy    <       0.00026827 Ry

     iteration # 31     ecut=    40.42 Ry     beta=0.20
     Davidson diagonalization with overlap
     ethr =  4.81E-08,  avg # of iterations =  9.0

     negative rho (up, down):  5.656E+00 0.000E+00

     total cpu time spent up to now is     4522.2 secs

     total energy              =   -6904.57595807 Ry
     Harris-Foulkes estimate   =   -6904.57599066 Ry
     estimated scf accuracy    <       0.00033662 Ry

     iteration # 32     ecut=    40.42 Ry     beta=0.20
     Davidson diagonalization with overlap
     c_bands:  1 eigenvalues not converged
     c_bands:  2 eigenvalues not converged
     ethr =  4.81E-08,  avg # of iterations = 13.2

     negative rho (up, down):  5.656E+00 0.000E+00

     total cpu time spent up to now is     4686.7 secs

     total energy              =   -6904.57598385 Ry
     Harris-Foulkes estimate   =   -6904.57598972 Ry
     estimated scf accuracy    <       0.00017202 Ry

     iteration # 33     ecut=    40.42 Ry     beta=0.20
     Davidson diagonalization with overlap
     ethr =  3.08E-08,  avg # of iterations =  2.0

     negative rho (up, down):  5.657E+00 0.000E+00

     total cpu time spent up to now is     4819.4 secs

     total energy              =   -6904.57595013 Ry
     Harris-Foulkes estimate   =   -6904.57598562 Ry
     estimated scf accuracy    <       0.00012450 Ry

     iteration # 34     ecut=    40.42 Ry     beta=0.20
     Davidson diagonalization with overlap
     ethr =  2.23E-08,  avg # of iterations =  2.0

     negative rho (up, down):  5.657E+00 0.000E+00

     total cpu time spent up to now is     4959.5 secs

     total energy              =   -6904.57594326 Ry
     Harris-Foulkes estimate   =   -6904.57595209 Ry
     estimated scf accuracy    <       0.00008500 Ry

     iteration # 35     ecut=    40.42 Ry     beta=0.20
     Davidson diagonalization with overlap
     ethr =  1.52E-08,  avg # of iterations = 12.0

     negative rho (up, down):  5.657E+00 0.000E+00

     total cpu time spent up to now is     5120.8 secs

     total energy              =   -6904.57593924 Ry
     Harris-Foulkes estimate   =   -6904.57595509 Ry
     estimated scf accuracy    <       0.00017861 Ry

     iteration # 36     ecut=    40.42 Ry     beta=0.20
     Davidson diagonalization with overlap
     ethr =  1.52E-08,  avg # of iterations =  2.0

     negative rho (up, down):  5.658E+00 0.000E+00

     total cpu time spent up to now is     5260.5 secs

     total energy              =   -6904.57592314 Ry
     Harris-Foulkes estimate   =   -6904.57594178 Ry
     estimated scf accuracy    <       0.00011484 Ry

     iteration # 37     ecut=    40.42 Ry     beta=0.20
     Davidson diagonalization with overlap
     ethr =  1.52E-08,  avg # of iterations = 10.8

     negative rho (up, down):  5.659E+00 0.000E+00

     total cpu time spent up to now is     5417.2 secs

     total energy              =   -6904.57592583 Ry
     Harris-Foulkes estimate   =   -6904.57594425 Ry
     estimated scf accuracy    <       0.00011085 Ry

     iteration # 38     ecut=    40.42 Ry     beta=0.20
     Davidson diagonalization with overlap
     c_bands:  2 eigenvalues not converged
     c_bands:  2 eigenvalues not converged
     ethr =  1.52E-08,  avg # of iterations = 12.0

     negative rho (up, down):  5.661E+00 0.000E+00

     total cpu time spent up to now is     5577.0 secs

     total energy              =   -6904.57593162 Ry
     Harris-Foulkes estimate   =   -6904.57593574 Ry
     estimated scf accuracy    <       0.00004157 Ry

     iteration # 39     ecut=    40.42 Ry     beta=0.20
     Davidson diagonalization with overlap
     ethr =  7.45E-09,  avg # of iterations =  6.0

     negative rho (up, down):  5.662E+00 0.000E+00

     total cpu time spent up to now is     5719.5 secs

     total energy              =   -6904.57592601 Ry
     Harris-Foulkes estimate   =   -6904.57593247 Ry
     estimated scf accuracy    <       0.00003602 Ry

     iteration # 40     ecut=    40.42 Ry     beta=0.20
     Davidson diagonalization with overlap
     ethr =  6.46E-09,  avg # of iterations =  2.2

     negative rho (up, down):  5.662E+00 0.000E+00

     total cpu time spent up to now is     5859.6 secs

     total energy              =   -6904.57592367 Ry
     Harris-Foulkes estimate   =   -6904.57592717 Ry
     estimated scf accuracy    <       0.00001500 Ry

     iteration # 41     ecut=    40.42 Ry     beta=0.20
     Davidson diagonalization with overlap
     ethr =  2.69E-09,  avg # of iterations =  8.5

     negative rho (up, down):  5.662E+00 0.000E+00

     total cpu time spent up to now is     6026.3 secs

     total energy              =   -6904.57592548 Ry
     Harris-Foulkes estimate   =   -6904.57592987 Ry
     estimated scf accuracy    <       0.00004820 Ry

     iteration # 42     ecut=    40.42 Ry     beta=0.20
     Davidson diagonalization with overlap
     ethr =  2.69E-09,  avg # of iterations =  2.8

     negative rho (up, down):  5.661E+00 0.000E+00

     total cpu time spent up to now is     6161.2 secs

     total energy              =   -6904.57592454 Ry
     Harris-Foulkes estimate   =   -6904.57592627 Ry
     estimated scf accuracy    <       0.00002028 Ry

     iteration # 43     ecut=    40.42 Ry     beta=0.20
     Davidson diagonalization with overlap
     ethr =  2.69E-09,  avg # of iterations =  1.0

     negative rho (up, down):  5.661E+00 0.000E+00

     total cpu time spent up to now is     6299.3 secs

     total energy              =   -6904.57592280 Ry
     Harris-Foulkes estimate   =   -6904.57592488 Ry
     estimated scf accuracy    <       0.00001036 Ry

     iteration # 44     ecut=    40.42 Ry     beta=0.20
     Davidson diagonalization with overlap
     ethr =  1.86E-09,  avg # of iterations = 10.0

     negative rho (up, down):  5.661E+00 0.000E+00

     total cpu time spent up to now is     6461.6 secs

     total energy              =   -6904.57592565 Ry
     Harris-Foulkes estimate   =   -6904.57592758 Ry
     estimated scf accuracy    <       0.00003112 Ry

     iteration # 45     ecut=    40.42 Ry     beta=0.20
     Davidson diagonalization with overlap
     ethr =  1.86E-09,  avg # of iterations =  1.0

     negative rho (up, down):  5.661E+00 0.000E+00

     total cpu time spent up to now is     6602.3 secs

     total energy              =   -6904.57592310 Ry
     Harris-Foulkes estimate   =   -6904.57592582 Ry
     estimated scf accuracy    <       0.00002031 Ry

     iteration # 46     ecut=    40.42 Ry     beta=0.20
     Davidson diagonalization with overlap
     ethr =  1.86E-09,  avg # of iterations =  8.5

     negative rho (up, down):  5.661E+00 0.000E+00

     total cpu time spent up to now is     6764.9 secs

     total energy              =   -6904.57592485 Ry
     Harris-Foulkes estimate   =   -6904.57592585 Ry
     estimated scf accuracy    <       0.00000576 Ry

     iteration # 47     ecut=    40.42 Ry     beta=0.20
     Davidson diagonalization with overlap
     c_bands:  2 eigenvalues not converged
     c_bands:  2 eigenvalues not converged
     ethr =  1.03E-09,  avg # of iterations = 12.2

     negative rho (up, down):  5.661E+00 0.000E+00

     total cpu time spent up to now is     6928.2 secs

     total energy              =   -6904.57592560 Ry
     Harris-Foulkes estimate   =   -6904.57592554 Ry
     estimated scf accuracy    <       0.00000214 Ry

     iteration # 48     ecut=    40.42 Ry     beta=0.20
     Davidson diagonalization with overlap
     c_bands:  2 eigenvalues not converged
     c_bands:  2 eigenvalues not converged
     ethr =  3.84E-10,  avg # of iterations = 13.2

     negative rho (up, down):  5.661E+00 0.000E+00

     total cpu time spent up to now is     7108.6 secs

     total energy              =   -6904.57592514 Ry
     Harris-Foulkes estimate   =   -6904.57592590 Ry
     estimated scf accuracy    <       0.00001027 Ry

     iteration # 49     ecut=    40.42 Ry     beta=0.20
     Davidson diagonalization with overlap
     c_bands:  2 eigenvalues not converged
     c_bands:  2 eigenvalues not converged
     ethr =  3.84E-10,  avg # of iterations = 12.0

     negative rho (up, down):  5.661E+00 0.000E+00

     total cpu time spent up to now is     7270.8 secs

     total energy              =   -6904.57592510 Ry
     Harris-Foulkes estimate   =   -6904.57592536 Ry
     estimated scf accuracy    <       0.00000199 Ry

     iteration # 50     ecut=    40.42 Ry     beta=0.20
     Davidson diagonalization with overlap
     c_bands:  2 eigenvalues not converged
     c_bands:  2 eigenvalues not converged
     ethr =  3.57E-10,  avg # of iterations = 11.2

     negative rho (up, down):  5.661E+00 0.000E+00

     total cpu time spent up to now is     7418.5 secs

     End of self-consistent calculation

          k = 0.0000 0.0000 0.0000 ( 93175 PWs)   bands (ev):

   -53.4812 -53.4789 -53.4737 -53.4479 -53.4456 -53.4416 -53.4147 -53.4126
   -53.4021 -53.4002 -53.3983 -53.3981 -53.3929 -53.3914 -53.3880 -53.3870
   -53.3854 -53.3851 -53.3136 -53.3123 -53.2991 -53.2959 -53.2952 -53.2899
   -53.2826 -53.2825 -53.2747 -53.2724 -53.2721 -53.2706 -53.2697 -53.2688
   -53.2675 -53.2646 -53.2638 -53.2612 -53.2405 -53.2391 -53.2350 -53.2348
   -53.2295 -53.2287 -53.2153 -53.2147 -53.2083 -53.1773 -53.1699 -53.1692
   -53.1642 -53.1622 -53.1617 -53.1614 -53.1606 -53.1594 -53.1525 -53.1236
   -53.1230 -53.1183 -53.1172 -53.1162 -53.1156 -53.1135 -53.1132 -53.0989
   -53.0804 -53.0803 -53.0482 -53.0457 -53.0453 -53.0434 -53.0423 -53.0135
   -52.9781 -52.9777 -52.9745 -52.9745 -52.9735 -52.9733 -52.9724 -52.9653
   -52.9348 -52.9022 -52.9009 -52.8993 -52.8988 -52.8985 -52.8979 -52.8968
   -52.8889 -52.8826 -52.8779 -52.8738 -52.8733 -52.8714 -52.8709 -52.8692
   -23.8081 -21.6512 -21.4489 -15.8980 -14.4886 -13.0657 -11.1147  -9.2875
    -8.8188  -8.1898  -8.1423  -7.9832  -7.6334  -7.5199  -7.5197  -7.5170
    -7.5162  -7.5156  -7.4911  -7.0797  -6.8474  -6.8473  -6.8456  -6.8137
    -6.7682  -6.7647  -6.7441  -6.5099  -6.2470  -6.2375  -6.2330  -6.2320
    -6.2317  -6.2285  -6.1562  -6.0032  -5.9898  -5.9836  -5.9701  -5.9684
    -5.9676  -5.9632  -5.9632  -5.9622  -5.7075  -5.4211  -5.4211  -5.4165
    -5.4157  -5.4152  -5.4095  -5.3856  -5.3855  -5.3806  -5.3786  -5.3779
    -5.3582  -5.0887  -5.0871  -5.0818  -5.0815  -5.0798  -5.0723  -4.9367
    -4.8780  -4.8353  -4.5076  -4.4954  -4.4880  -4.3674  -4.3608  -4.3595
    -4.3579  -4.3567  -4.3548  -4.3538  -4.2587  -4.2122  -4.1759  -4.1678
    -4.1666  -4.1656  -4.1581  -4.1128  -4.0894  -4.0718  -4.0713  -4.0707
    -4.0639  -4.0296  -4.0295  -3.9593  -3.8694  -3.8646  -3.8564  -3.8552
    -3.8541  -3.8535  -3.8475  -3.8475  -3.8262  -3.8204  -3.8144  -3.8142
    -3.7970  -3.7502  -3.5491  -3.5415  -3.5403  -3.5377  -3.5187  -3.5120
    -3.4605  -3.4550  -3.4525  -3.4498  -3.4488  -3.4380  -3.2227  -3.2208
    -3.2136  -3.0017  -2.9997  -2.9914  -2.9909  -2.9900  -2.9893  -2.7026
    -2.5077  -2.5072  -2.5016  -2.5013  -2.5009  -2.4991  -2.3775  -2.3698
    -2.3686  -2.3647  -2.3625  -2.3421  -2.3021  -2.2774  -2.2740  -2.1616
    -1.9707  -1.9703  -1.9636  -1.9623  -1.9615  -1.9599  -1.9489  -1.9483
    -1.9154  -1.9108  -1.9012  -1.9011  -1.8986  -1.8973  -1.7153  -1.7088
    -1.7072  -1.7050  -1.7042  -1.7015  -1.7000  -1.6982  -1.6165  -1.4829
    -1.1974  -1.1969  -1.1877  -0.9650  -0.9625  -0.9458  -0.9456  -0.9450
    -0.9437  -0.9430  -0.9428  -0.7796  -0.7769  -0.7766  -0.7745  -0.7738
    -0.7579  -0.4029  -0.3929  -0.3920  -0.3877  -0.3820  -0.3742  -0.3677
    -0.3616

          k = 0.0000-0.0520 0.0000 ( 93226 PWs)   bands (ev):

   -53.4571 -53.4537 -53.4456 -53.4449 -53.4360 -53.4223 -53.4215 -53.4178
   -53.4152 -53.4148 -53.4142 -53.4102 -53.3996 -53.3906 -53.3850 -53.3805
   -53.3706 -53.3658 -53.3630 -53.3603 -53.3495 -53.3475 -53.3433 -53.3408
   -53.3230 -53.3157 -53.2809 -53.2724 -53.2524 -53.2501 -53.2450 -53.2402
   -53.2394 -53.2378 -53.2361 -53.2351 -53.2096 -53.2073 -53.2027 -53.1999
   -53.1990 -53.1971 -53.1959 -53.1919 -53.1891 -53.1859 -53.1823 -53.1695
   -53.1658 -53.1647 -53.1643 -53.1606 -53.1575 -53.1543 -53.1524 -53.1469
   -53.1468 -53.1456 -53.1341 -53.1296 -53.1280 -53.1214 -53.1178 -53.0924
   -53.0904 -53.0818 -53.0726 -53.0548 -53.0427 -53.0147 -53.0133 -53.0102
   -53.0064 -53.0006 -52.9870 -52.9762 -52.9751 -52.9718 -52.9538 -52.9437
   -52.9357 -52.9137 -52.9096 -52.9000 -52.8990 -52.8973 -52.8929 -52.8885
   -52.8849 -52.8821 -52.8805 -52.8775 -52.8741 -52.8705 -52.8700 -52.8687
   -23.8081 -21.6512 -21.4489 -15.8980 -14.4886 -13.0657 -11.1145  -8.8218
    -8.7558  -8.7416  -8.1800  -8.1429  -7.9788  -7.8021  -7.7744  -7.1026
    -7.0935  -7.0798  -6.9124  -6.9060  -6.8131  -6.7118  -6.7108  -6.7095
    -6.6929  -6.5288  -6.5010  -6.4850  -6.4747  -6.4706  -6.4693  -6.4605
    -6.2717  -6.2705  -6.2699  -6.2657  -6.2034  -6.2017  -6.1453  -5.8437
    -5.8374  -5.8349  -5.8336  -5.8328  -5.7945  -5.7911  -5.7890  -5.7540
    -5.7427  -5.7427  -5.7399  -5.6815  -5.4981  -5.4853  -5.3946  -5.3918
    -5.3894  -5.3684  -5.3551  -5.3548  -4.9504  -4.8786  -4.8543  -4.8452
    -4.8361  -4.6817  -4.6663  -4.3996  -4.3957  -4.3939  -4.3521  -4.3516
    -4.3437  -4.3431  -4.3242  -4.3178  -4.2684  -4.2595  -4.2382  -4.2320
    -4.2289  -4.2270  -4.2136  -4.2047  -4.1786  -4.1455  -4.1318  -4.1251
    -4.1140  -4.1055  -4.0407  -4.0303  -4.0182  -4.0123  -3.9354  -3.7912
    -3.7872  -3.7791  -3.7377  -3.6392  -3.6344  -3.5823  -3.5673  -3.5664
    -3.5626  -3.5079  -3.5049  -3.4919  -3.4874  -3.4332  -3.4306  -3.3148
    -3.3119  -3.1193  -3.1121  -3.0701  -3.0646  -3.0629  -3.0623  -3.0019
    -2.9895  -2.9629  -2.9389  -2.7842  -2.7568  -2.7452  -2.7359  -2.7352
    -2.7282  -2.6852  -2.6774  -2.6266  -2.4877  -2.4793  -2.4583  -2.4515
    -2.4468  -2.4441  -2.4108  -2.3635  -2.1116  -2.1114  -2.1041  -2.0936
    -2.0871  -2.0729  -2.0034  -1.9921  -1.9902  -1.9424  -1.8058  -1.8017
    -1.5881  -1.5817  -1.5768  -1.5756  -1.4916  -1.4881  -1.4813  -1.4777
    -1.4769  -1.3992  -1.3985  -1.3960  -1.3893  -1.3811  -1.3797  -1.3576
    -1.3526  -1.3327  -1.3316  -1.2514  -1.2289  -1.2163  -1.2011  -1.1200
    -1.1076  -1.0939  -1.0874  -1.0873  -1.0485  -0.9390  -0.9307  -0.8708
    -0.8678  -0.8405  -0.8383  -0.7601  -0.7584  -0.7557  -0.7447  -0.6754
    -0.6753

          k = 0.0450-0.0260 0.0000 ( 93226 PWs)   bands (ev):

   -53.4601 -53.4505 -53.4463 -53.4443 -53.4350 -53.4244 -53.4214 -53.4167
   -53.4158 -53.4144 -53.4133 -53.4103 -53.3997 -53.3906 -53.3849 -53.3804
   -53.3715 -53.3654 -53.3626 -53.3608 -53.3495 -53.3477 -53.3432 -53.3411
   -53.3232 -53.3158 -53.2816 -53.2723 -53.2517 -53.2494 -53.2457 -53.2400
   -53.2392 -53.2371 -53.2360 -53.2352 -53.2086 -53.2077 -53.2030 -53.2006
   -53.1990 -53.1973 -53.1970 -53.1922 -53.1869 -53.1862 -53.1819 -53.1698
   -53.1662 -53.1647 -53.1638 -53.1607 -53.1574 -53.1554 -53.1525 -53.1476
   -53.1464 -53.1454 -53.1343 -53.1293 -53.1274 -53.1216 -53.1178 -53.0926
   -53.0901 -53.0820 -53.0725 -53.0547 -53.0424 -53.0152 -53.0128 -53.0112
   -53.0059 -53.0017 -52.9862 -52.9759 -52.9724 -52.9720 -52.9581 -52.9435
   -52.9328 -52.9135 -52.9124 -52.9007 -52.8975 -52.8963 -52.8921 -52.8883
   -52.8862 -52.8825 -52.8799 -52.8780 -52.8737 -52.8707 -52.8701 -52.8685
   -23.8081 -21.6512 -21.4489 -15.8980 -14.4886 -13.0657 -11.1145  -8.8216
    -8.7549  -8.7417  -8.1821  -8.1418  -7.9842  -7.8008  -7.7692  -7.1038
    -7.1010  -7.0723  -6.9115  -6.9054  -6.8149  -6.7118  -6.7108  -6.7100
    -6.6920  -6.5221  -6.5023  -6.4965  -6.4745  -6.4711  -6.4704  -6.4560
    -6.2724  -6.2697  -6.2676  -6.2640  -6.2032  -6.1986  -6.1519  -5.8574
    -5.8376  -5.8373  -5.8337  -5.8169  -5.7954  -5.7895  -5.7892  -5.7670
    -5.7434  -5.7429  -5.7389  -5.6467  -5.4989  -5.4959  -5.3941  -5.3929
    -5.3895  -5.3806  -5.3554  -5.3506  -4.9521  -4.8788  -4.8524  -4.8470
    -4.8342  -4.6781  -4.6643  -4.4021  -4.3943  -4.3813  -4.3547  -4.3477
    -4.3432  -4.3428  -4.3374  -4.3199  -4.2685  -4.2596  -4.2393  -4.2302
    -4.2273  -4.2247  -4.2077  -4.2040  -4.1800  -4.1480  -4.1445  -4.1197
    -4.1151  -4.1032  -4.0401  -4.0296  -4.0198  -4.0134  -3.9314  -3.7937
    -3.7866  -3.7810  -3.7545  -3.6393  -3.6344  -3.5743  -3.5682  -3.5664
    -3.5651  -3.5204  -3.5045  -3.4925  -3.4872  -3.4343  -3.4208  -3.3138
    -3.3005  -3.1223  -3.1117  -3.0707  -3.0671  -3.0629  -3.0614  -2.9994
    -2.9909  -2.9554  -2.9384  -2.7699  -2.7582  -2.7458  -2.7380  -2.7345
    -2.7324  -2.6887  -2.6785  -2.6364  -2.4892  -2.4766  -2.4586  -2.4541
    -2.4516  -2.4361  -2.4003  -2.3677  -2.1145  -2.1116  -2.1040  -2.0937
    -2.0870  -2.0702  -2.0015  -1.9940  -1.9884  -1.9524  -1.8067  -1.8002
    -1.5842  -1.5810  -1.5783  -1.5741  -1.4920  -1.4892  -1.4811  -1.4774
    -1.4760  -1.3995  -1.3976  -1.3949  -1.3933  -1.3819  -1.3780  -1.3579
    -1.3528  -1.3331  -1.3299  -1.2551  -1.2289  -1.2192  -1.1910  -1.1207
    -1.1077  -1.0927  -1.0883  -1.0865  -1.0528  -0.9401  -0.9304  -0.8710
    -0.8676  -0.8414  -0.8376  -0.7607  -0.7570  -0.7551  -0.7431  -0.6755
    -0.6750

          k =-0.0450-0.0260 0.0000 ( 93226 PWs)   bands (ev):

   -53.4601 -53.4506 -53.4463 -53.4444 -53.4351 -53.4243 -53.4214 -53.4167
   -53.4158 -53.4144 -53.4133 -53.4103 -53.3997 -53.3906 -53.3850 -53.3804
   -53.3715 -53.3654 -53.3626 -53.3608 -53.3495 -53.3477 -53.3432 -53.3411
   -53.3232 -53.3158 -53.2816 -53.2723 -53.2517 -53.2495 -53.2457 -53.2400
   -53.2392 -53.2371 -53.2360 -53.2352 -53.2086 -53.2077 -53.2030 -53.2006
   -53.1990 -53.1973 -53.1970 -53.1922 -53.1869 -53.1862 -53.1819 -53.1698
   -53.1662 -53.1647 -53.1638 -53.1607 -53.1574 -53.1554 -53.1525 -53.1476
   -53.1465 -53.1453 -53.1343 -53.1293 -53.1274 -53.1216 -53.1178 -53.0926
   -53.0901 -53.0820 -53.0725 -53.0547 -53.0425 -53.0152 -53.0128 -53.0112
   -53.0059 -53.0017 -52.9862 -52.9759 -52.9723 -52.9720 -52.9582 -52.9435
   -52.9327 -52.9135 -52.9125 -52.9007 -52.8975 -52.8963 -52.8921 -52.8883
   -52.8862 -52.8825 -52.8799 -52.8780 -52.8737 -52.8707 -52.8701 -52.8685
   -23.8081 -21.6512 -21.4489 -15.8980 -14.4886 -13.0657 -11.1146  -8.8216
    -8.7550  -8.7416  -8.1822  -8.1416  -7.9842  -7.8009  -7.7691  -7.1033
    -7.1017  -7.0721  -6.9116  -6.9054  -6.8149  -6.7118  -6.7108  -6.7101
    -6.6919  -6.5222  -6.5023  -6.4962  -6.4745  -6.4710  -6.4703  -6.4562
    -6.2724  -6.2696  -6.2676  -6.2639  -6.2032  -6.1985  -6.1524  -5.8571
    -5.8377  -5.8373  -5.8337  -5.8175  -5.7954  -5.7895  -5.7891  -5.7658
    -5.7434  -5.7429  -5.7389  -5.6477  -5.4988  -5.4958  -5.3940  -5.3928
    -5.3895  -5.3804  -5.3554  -5.3507  -4.9520  -4.8792  -4.8531  -4.8478
    -4.8325  -4.6781  -4.6642  -4.4022  -4.3943  -4.3814  -4.3549  -4.3475
    -4.3431  -4.3426  -4.3371  -4.3200  -4.2687  -4.2598  -4.2399  -4.2301
    -4.2272  -4.2247  -4.2076  -4.2041  -4.1799  -4.1476  -4.1446  -4.1198
    -4.1150  -4.1033  -4.0394  -4.0297  -4.0196  -4.0131  -3.9324  -3.7933
    -3.7865  -3.7810  -3.7548  -3.6393  -3.6344  -3.5743  -3.5682  -3.5660
    -3.5651  -3.5200  -3.5050  -3.4925  -3.4872  -3.4343  -3.4212  -3.3138
    -3.3004  -3.1222  -3.1117  -3.0709  -3.0671  -3.0629  -3.0614  -2.9990
    -2.9909  -2.9563  -2.9377  -2.7688  -2.7583  -2.7461  -2.7379  -2.7346
    -2.7326  -2.6885  -2.6784  -2.6370  -2.4892  -2.4768  -2.4586  -2.4540
    -2.4516  -2.4367  -2.4003  -2.3672  -2.1144  -2.1116  -2.1042  -2.0937
    -2.0870  -2.0704  -2.0014  -1.9939  -1.9884  -1.9523  -1.8066  -1.8003
    -1.5842  -1.5810  -1.5783  -1.5741  -1.4922  -1.4892  -1.4810  -1.4774
    -1.4760  -1.3994  -1.3976  -1.3949  -1.3933  -1.3819  -1.3779  -1.3579
    -1.3528  -1.3331  -1.3298  -1.2550  -1.2290  -1.2191  -1.1911  -1.1207
    -1.1077  -1.0927  -1.0883  -1.0865  -1.0528  -0.9400  -0.9304  -0.8710
    -0.8676  -0.8414  -0.8376  -0.7607  -0.7570  -0.7552  -0.7432  -0.6755
    -0.6750

     the Fermi energy is    -0.8684 ev

!    total energy              =   -6904.57592534 Ry
     Harris-Foulkes estimate   =   -6904.57592524 Ry
     estimated scf accuracy    <       0.00000018 Ry

     The total energy is the sum of the following terms:

     one-electron contribution =  -62796.03800008 Ry
     hartree contribution      =   31445.89348331 Ry
     xc contribution           =   -1863.70587553 Ry
     ewald contribution        =   26309.41854779 Ry
     smearing contrib. (-TS)   =      -0.14408083 Ry

     convergence has been achieved in  50 iterations

     Forces acting on atoms (Ry/au):


     negative rho (up, down):  5.661E+00 0.000E+00
     atom    1 type  1   force =    -0.00000244   -0.00000661   -0.01815550
     atom    2 type  1   force =     0.00029632   -0.00009850    0.01756665
     atom    3 type  1   force =    -0.00069004   -0.00088222   -0.01881691
     atom    4 type  1   force =     0.00000158    0.00041804    0.01833908
     atom    5 type  1   force =     0.00149690    0.00053604   -0.01814513
     atom    6 type  1   force =    -0.00044445   -0.00036959    0.01802994
     atom    7 type  1   force =    -0.00130780    0.00013142   -0.01857957
     atom    8 type  1   force =     0.00037854    0.00016859    0.01832126
     atom    9 type  1   force =    -0.00084401    0.00075496   -0.01933065
     atom   10 type  1   force =    -0.00147308   -0.00425902    0.01899967
     atom   11 type  1   force =     0.00069313   -0.00088068   -0.01880819
     atom   12 type  1   force =    -0.00433349    0.00116614    0.01732616
     atom   13 type  1   force =    -0.00000405   -0.00043275   -0.01836972
     atom   14 type  1   force =     0.00043875   -0.00036394    0.01802627
     atom   15 type  1   force =    -0.00030222    0.00026166   -0.01822098
     atom   16 type  1   force =    -0.00000259    0.00029946    0.01839049
     atom   17 type  1   force =    -0.00000520   -0.00153311   -0.01845635
     atom   18 type  1   force =     0.00147700   -0.00426432    0.01897867
     atom   19 type  1   force =     0.00263839    0.00148552   -0.01693084
     atom   20 type  1   force =     0.00008318    0.00803150    0.00402083
     atom   21 type  1   force =    -0.00149339    0.00053364   -0.01814917
     atom   22 type  1   force =    -0.00292448    0.00310638    0.01637870
     atom   23 type  1   force =     0.00030145    0.00025300   -0.01822784
     atom   24 type  1   force =    -0.00038119    0.00016464    0.01832966
     atom   25 type  1   force =     0.00084825    0.00076135   -0.01932839
     atom   26 type  1   force =    -0.00030474   -0.00008356    0.01756862
     atom   27 type  1   force =    -0.00262284    0.00146965   -0.01696815
     atom   28 type  1   force =     0.00436370    0.00116242    0.01730920
     atom   29 type  1   force =    -0.00000666   -0.00167209   -0.01947314
     atom   30 type  1   force =     0.00293273    0.00312330    0.01636168
     atom   31 type  1   force =     0.00130728    0.00012690   -0.01856682
     atom   32 type  1   force =     0.00000601   -0.00017967    0.01811223
     atom   33 type  2   force =     0.00006235   -0.01835962    0.01056936
     atom   34 type  2   force =    -0.00091315   -0.00927058   -0.00958695
     atom   35 type  2   force =    -0.00070714    0.01211663   -0.02917345
     atom   36 type  3   force =    -0.00059172    0.00971449   -0.02067489
     atom   37 type  3   force =    -0.00011977   -0.01232549    0.01668262
     atom   38 type  3   force =    -0.00041436    0.02179313   -0.01717943
     atom   39 type  3   force =     0.00107530    0.01076866   -0.00911183
     atom   40 type  3   force =     0.00140706   -0.00355626    0.04769452
     atom   41 type  4   force =     0.00007185   -0.00606280    0.00933736
     atom   42 type  4   force =     0.00037418   -0.00598443    0.00948333
     atom   43 type  4   force =    -0.00171232    0.00553521   -0.01040089
     atom   44 type  4   force =     0.00180232    0.00551596   -0.01053478
     atom   45 type  4   force =    -0.00244968   -0.00692043    0.01027325
     atom   46 type  4   force =     0.00178671   -0.00711397    0.01075377
     atom   47 type  4   force =    -0.00009072    0.00278592   -0.00126009
     atom   48 type  4   force =     0.00029854   -0.00756495    0.01559634

     Total force =     0.132206     Total SCF correction =     0.000672
 !ASE

     Writing output data file calc.save
     Check: negative starting charge=   -5.909509
     NEW-OLD atomic charge density approx. for the potential
     Check: negative starting charge=   -5.902925

     negative rho (up, down):  5.658E+00 0.000E+00

     total cpu time spent up to now is     7520.2 secs

     per-process dynamical memory:   417.5 Mb

     Self-consistent Calculation

     iteration #  1     ecut=    40.42 Ry     beta=0.20
     Davidson diagonalization with overlap
     c_bands:  1 eigenvalues not converged
     ethr =  3.57E-10,  avg # of iterations = 25.5

     negative rho (up, down):  5.657E+00 0.000E+00

     total cpu time spent up to now is     8169.2 secs

     total energy              =   -6904.45092567 Ry
     Harris-Foulkes estimate   =   -6904.46186824 Ry
     estimated scf accuracy    <       0.11289627 Ry

     iteration #  2     ecut=    40.42 Ry     beta=0.20
     Davidson diagonalization with overlap
     ethr =  2.02E-05,  avg # of iterations =  1.0

     negative rho (up, down):  5.663E+00 0.000E+00

     total cpu time spent up to now is     8304.4 secs

     total energy              =   -6904.42797341 Ry
     Harris-Foulkes estimate   =   -6904.45146560 Ry
     estimated scf accuracy    <       0.07407776 Ry

     iteration #  3     ecut=    40.42 Ry     beta=0.20
     Davidson diagonalization with overlap
     ethr =  1.33E-05,  avg # of iterations =  6.5

     negative rho (up, down):  5.667E+00 0.000E+00

     total cpu time spent up to now is     8460.1 secs

     total energy              =   -6904.42760457 Ry
     Harris-Foulkes estimate   =   -6904.43261407 Ry
     estimated scf accuracy    <       0.01922985 Ry

     iteration #  4     ecut=    40.42 Ry     beta=0.20
     Davidson diagonalization with overlap
     ethr =  3.45E-06,  avg # of iterations =  4.0

     negative rho (up, down):  5.669E+00 0.000E+00

     total cpu time spent up to now is     8607.2 secs

     total energy              =   -6904.42769291 Ry
     Harris-Foulkes estimate   =   -6904.42892222 Ry
     estimated scf accuracy    <       0.00732944 Ry

     iteration #  5     ecut=    40.42 Ry     beta=0.20
     Davidson diagonalization with overlap
     ethr =  1.31E-06,  avg # of iterations =  5.2

     negative rho (up, down):  5.666E+00 0.000E+00

     total cpu time spent up to now is     8766.0 secs

     total energy              =   -6904.42770161 Ry
     Harris-Foulkes estimate   =   -6904.42820603 Ry
     estimated scf accuracy    <       0.00278962 Ry

     iteration #  6     ecut=    40.42 Ry     beta=0.20
     Davidson diagonalization with overlap
     ethr =  5.00E-07,  avg # of iterations =  4.0

     negative rho (up, down):  5.665E+00 0.000E+00

     total cpu time spent up to now is     8921.4 secs

     total energy              =   -6904.42790284 Ry
     Harris-Foulkes estimate   =   -6904.42793501 Ry
     estimated scf accuracy    <       0.00131495 Ry

     iteration #  7     ecut=    40.42 Ry     beta=0.20
     Davidson diagonalization with overlap
     ethr =  2.36E-07,  avg # of iterations =  3.2

     negative rho (up, down):  5.663E+00 0.000E+00

     total cpu time spent up to now is     9068.3 secs

     total energy              =   -6904.42781320 Ry
     Harris-Foulkes estimate   =   -6904.42792453 Ry
     estimated scf accuracy    <       0.00109023 Ry

     iteration #  8     ecut=    40.42 Ry     beta=0.20
     Davidson diagonalization with overlap
     ethr =  1.95E-07,  avg # of iterations =  3.8

     negative rho (up, down):  5.661E+00 0.000E+00

     total cpu time spent up to now is     9209.8 secs

     total energy              =   -6904.42782406 Ry
     Harris-Foulkes estimate   =   -6904.42785661 Ry
     estimated scf accuracy    <       0.00054407 Ry

     iteration #  9     ecut=    40.42 Ry     beta=0.20
     Davidson diagonalization with overlap
     c_bands:  1 eigenvalues not converged
     c_bands:  1 eigenvalues not converged
     ethr =  9.75E-08,  avg # of iterations = 11.5

     negative rho (up, down):  5.658E+00 0.000E+00

     total cpu time spent up to now is     9372.3 secs

     total energy              =   -6904.42780470 Ry
     Harris-Foulkes estimate   =   -6904.42784542 Ry
     estimated scf accuracy    <       0.00043539 Ry

     iteration # 10     ecut=    40.42 Ry     beta=0.20
     Davidson diagonalization with overlap
     ethr =  7.80E-08,  avg # of iterations =  5.8

     negative rho (up, down):  5.657E+00 0.000E+00

     total cpu time spent up to now is     9518.0 secs

     total energy              =   -6904.42780776 Ry
     Harris-Foulkes estimate   =   -6904.42781401 Ry
     estimated scf accuracy    <       0.00039801 Ry

     iteration # 11     ecut=    40.42 Ry     beta=0.20
     Davidson diagonalization with overlap
     ethr =  7.13E-08,  avg # of iterations =  1.0

     negative rho (up, down):  5.654E+00 0.000E+00

     total cpu time spent up to now is     9656.4 secs

     total energy              =   -6904.42770939 Ry
     Harris-Foulkes estimate   =   -6904.42780969 Ry
     estimated scf accuracy    <       0.00034701 Ry

     iteration # 12     ecut=    40.42 Ry     beta=0.20
     Davidson diagonalization with overlap
     ethr =  6.22E-08,  avg # of iterations =  3.0

     negative rho (up, down):  5.653E+00 0.000E+00

     total cpu time spent up to now is     9806.0 secs

     total energy              =   -6904.42772160 Ry
     Harris-Foulkes estimate   =   -6904.42772920 Ry
     estimated scf accuracy    <       0.00014134 Ry

     iteration # 13     ecut=    40.42 Ry     beta=0.20
     Davidson diagonalization with overlap
     ethr =  2.53E-08,  avg # of iterations =  3.0

     negative rho (up, down):  5.652E+00 0.000E+00

     total cpu time spent up to now is     9949.6 secs

     total energy              =   -6904.42769748 Ry
     Harris-Foulkes estimate   =   -6904.42772456 Ry
     estimated scf accuracy    <       0.00011680 Ry

     iteration # 14     ecut=    40.42 Ry     beta=0.20
     Davidson diagonalization with overlap
     ethr =  2.09E-08,  avg # of iterations =  7.2

     negative rho (up, down):  5.652E+00 0.000E+00

     total cpu time spent up to now is    10108.6 secs

     total energy              =   -6904.42770514 Ry
     Harris-Foulkes estimate   =   -6904.42770470 Ry
     estimated scf accuracy    <       0.00005870 Ry

     iteration # 15     ecut=    40.42 Ry     beta=0.20
     Davidson diagonalization with overlap
     ethr =  1.05E-08,  avg # of iterations =  2.0

     negative rho (up, down):  5.651E+00 0.000E+00

     total cpu time spent up to now is    10256.3 secs

     total energy              =   -6904.42770216 Ry
     Harris-Foulkes estimate   =   -6904.42770617 Ry
     estimated scf accuracy    <       0.00004317 Ry

     iteration # 16     ecut=    40.42 Ry     beta=0.20
     Davidson diagonalization with overlap
     ethr =  7.74E-09,  avg # of iterations =  3.0

     negative rho (up, down):  5.651E+00 0.000E+00

     total cpu time spent up to now is    10398.6 secs

     total energy              =   -6904.42769905 Ry
     Harris-Foulkes estimate   =   -6904.42770306 Ry
     estimated scf accuracy    <       0.00003210 Ry

     iteration # 17     ecut=    40.42 Ry     beta=0.20
     Davidson diagonalization with overlap
     ethr =  5.75E-09,  avg # of iterations =  2.8

     negative rho (up, down):  5.651E+00 0.000E+00

     total cpu time spent up to now is    10538.7 secs

     total energy              =   -6904.42769619 Ry
     Harris-Foulkes estimate   =   -6904.42770002 Ry
     estimated scf accuracy    <       0.00002654 Ry

     iteration # 18     ecut=    40.42 Ry     beta=0.20
     Davidson diagonalization with overlap
     ethr =  4.76E-09,  avg # of iterations =  2.0

     negative rho (up, down):  5.651E+00 0.000E+00

     total cpu time spent up to now is    10679.1 secs

     total energy              =   -6904.42769444 Ry
     Harris-Foulkes estimate   =   -6904.42769683 Ry
     estimated scf accuracy    <       0.00001713 Ry

     iteration # 19     ecut=    40.42 Ry     beta=0.20
     Davidson diagonalization with overlap
     ethr =  3.07E-09,  avg # of iterations =  2.0

     negative rho (up, down):  5.651E+00 0.000E+00

     total cpu time spent up to now is    10820.6 secs

     total energy              =   -6904.42769292 Ry
     Harris-Foulkes estimate   =   -6904.42769482 Ry
     estimated scf accuracy    <       0.00001250 Ry

     iteration # 20     ecut=    40.42 Ry     beta=0.20
     Davidson diagonalization with overlap
     ethr =  2.24E-09,  avg # of iterations =  7.0

     negative rho (up, down):  5.652E+00 0.000E+00

     total cpu time spent up to now is    10974.9 secs

     total energy              =   -6904.42769107 Ry
     Harris-Foulkes estimate   =   -6904.42769342 Ry
     estimated scf accuracy    <       0.00000980 Ry

     iteration # 21     ecut=    40.42 Ry     beta=0.20
     Davidson diagonalization with overlap
     ethr =  1.76E-09,  avg # of iterations =  2.0

     negative rho (up, down):  5.652E+00 0.000E+00

     total cpu time spent up to now is    11115.3 secs

     total energy              =   -6904.42768952 Ry
     Harris-Foulkes estimate   =   -6904.42769127 Ry
     estimated scf accuracy    <       0.00000681 Ry

     iteration # 22     ecut=    40.42 Ry     beta=0.20
     Davidson diagonalization with overlap
     ethr =  1.22E-09,  avg # of iterations =  2.0

     negative rho (up, down):  5.652E+00 0.000E+00

     total cpu time spent up to now is    11251.3 secs

     total energy              =   -6904.42768850 Ry
     Harris-Foulkes estimate   =   -6904.42768965 Ry
     estimated scf accuracy    <       0.00000447 Ry

     iteration # 23     ecut=    40.42 Ry     beta=0.20
     Davidson diagonalization with overlap
     ethr =  8.01E-10,  avg # of iterations =  3.2

     negative rho (up, down):  5.653E+00 0.000E+00

     total cpu time spent up to now is    11401.1 secs

     total energy              =   -6904.42768751 Ry
     Harris-Foulkes estimate   =   -6904.42768869 Ry
     estimated scf accuracy    <       0.00000237 Ry

     iteration # 24     ecut=    40.42 Ry     beta=0.20
     Davidson diagonalization with overlap
     ethr =  4.26E-10,  avg # of iterations =  6.5

     negative rho (up, down):  5.653E+00 0.000E+00

     total cpu time spent up to now is    11555.5 secs

     total energy              =   -6904.42768753 Ry
     Harris-Foulkes estimate   =   -6904.42768768 Ry
     estimated scf accuracy    <       0.00000134 Ry

     iteration # 25     ecut=    40.42 Ry     beta=0.20
     Davidson diagonalization with overlap
     ethr =  2.40E-10,  avg # of iterations =  2.0

     negative rho (up, down):  5.653E+00 0.000E+00

     total cpu time spent up to now is    11694.9 secs

     total energy              =   -6904.42768694 Ry
     Harris-Foulkes estimate   =   -6904.42768755 Ry
     estimated scf accuracy    <       0.00000102 Ry

     iteration # 26     ecut=    40.42 Ry     beta=0.20
     Davidson diagonalization with overlap
     ethr =  1.83E-10,  avg # of iterations =  3.5

     negative rho (up, down):  5.654E+00 0.000E+00

     total cpu time spent up to now is    11828.5 secs

     End of self-consistent calculation

          k = 0.0000 0.0000 0.0000 ( 93175 PWs)   bands (ev):

   -53.2476 -53.2439 -53.2330 -53.2165 -53.2135 -53.2082 -53.1882 -53.1858
   -53.1673 -53.1659 -53.1578 -53.1559 -53.1552 -53.1550 -53.1504 -53.1496
   -53.1451 -53.1447 -53.0919 -53.0902 -53.0631 -53.0560 -53.0546 -53.0491
   -53.0463 -53.0461 -53.0388 -53.0362 -53.0356 -53.0327 -53.0312 -53.0302
   -53.0293 -53.0229 -53.0205 -53.0180 -53.0108 -53.0108 -53.0086 -53.0043
   -52.9957 -52.9956 -52.9938 -52.9740 -52.9740 -52.9655 -52.9376 -52.9366
   -52.9344 -52.9299 -52.9293 -52.9198 -52.9194 -52.9165 -52.9144 -52.8985
   -52.8975 -52.8909 -52.8875 -52.8869 -52.8853 -52.8736 -52.8736 -52.8515
   -52.8511 -52.7947 -52.7542 -52.7504 -52.7495 -52.7467 -52.7440 -52.7294
   -52.6992 -52.6963 -52.6948 -52.6927 -52.6900 -52.6873 -52.6838 -52.6766
   -52.6708 -52.6375 -52.6351 -52.6341 -52.6339 -52.6304 -52.6300 -52.6296
   -52.6241 -52.6214 -52.6180 -52.6150 -52.6133 -52.6110 -52.6072 -52.6028
   -25.7756 -23.7686 -21.4049 -16.2863 -14.4207 -12.7703 -10.3343  -9.3195
    -8.9032  -8.7391  -8.5906  -8.2924  -7.6710  -7.5525  -7.3662  -7.1477
    -7.1182  -7.1138  -7.1099  -7.1075  -7.1073  -6.9380  -6.5112  -6.5001
    -6.4970  -6.4936  -6.4294  -6.4269  -6.3798  -6.3416  -5.9454  -5.9306
    -5.9297  -5.9260  -5.9206  -5.9174  -5.5731  -5.5699  -5.5592  -5.5270
    -5.5159  -5.5107  -5.5019  -5.4979  -5.4959  -5.4880  -5.2917  -5.2202
    -5.0500  -5.0410  -5.0401  -5.0377  -5.0268  -5.0258  -4.9798  -4.9682
    -4.9625  -4.9595  -4.9525  -4.9518  -4.7195  -4.7055  -4.6983  -4.6974
    -4.6906  -4.6880  -4.4605  -4.2974  -4.2813  -4.2792  -4.1037  -4.0868
    -4.0808  -4.0732  -4.0693  -4.0681  -4.0631  -4.0539  -3.9174  -3.9096
    -3.9023  -3.8998  -3.8974  -3.8118  -3.7621  -3.7489  -3.7393  -3.7375
    -3.7281  -3.7260  -3.7256  -3.6827  -3.6581  -3.6284  -3.6264  -3.6251
    -3.6235  -3.6230  -3.6114  -3.5759  -3.5754  -3.5711  -3.5639  -3.5604
    -3.5591  -3.4887  -3.4838  -3.3396  -3.3321  -3.3299  -3.3231  -3.2862
    -3.2433  -3.2234  -3.2117  -3.2060  -3.1973  -3.1898  -3.1607  -2.7670
    -2.7660  -2.7484  -2.5594  -2.5569  -2.5485  -2.5430  -2.5397  -2.5351
    -2.2531  -2.2530  -2.2476  -2.2410  -2.2235  -2.2189  -2.2123  -2.2004
    -2.1985  -2.1972  -2.1962  -2.1857  -2.1036  -2.0779  -2.0683  -1.9825
    -1.8026  -1.8010  -1.7997  -1.7870  -1.7861  -1.7817  -1.7679  -1.7640
    -1.7598  -1.7581  -1.7574  -1.7533  -1.7317  -1.6219  -1.6189  -1.5779
    -1.5775  -1.5758  -1.5677  -1.5568  -1.5306  -1.4830  -1.4797  -1.4191
    -1.0665  -1.0654  -1.0577  -0.8408  -0.8382  -0.8305  -0.8263  -0.8254
    -0.8237  -0.7851  -0.7837  -0.6430  -0.6426  -0.6401  -0.6399  -0.6380
    -0.6100  -0.3018  -0.2820  -0.2746  -0.2726  -0.2686  -0.1372  -0.1361
    -0.1288

          k = 0.0000-0.0520 0.0000 ( 93226 PWs)   bands (ev):

   -53.2283 -53.2256 -53.2080 -53.2061 -53.2018 -53.1899 -53.1824 -53.1818
   -53.1797 -53.1779 -53.1766 -53.1695 -53.1685 -53.1581 -53.1516 -53.1466
   -53.1421 -53.1259 -53.1211 -53.1205 -53.1151 -53.1144 -53.1060 -53.1046
   -53.0854 -53.0713 -53.0557 -53.0422 -53.0171 -53.0166 -53.0107 -53.0031
   -53.0020 -52.9987 -52.9960 -52.9925 -52.9888 -52.9733 -52.9695 -52.9670
   -52.9656 -52.9633 -52.9621 -52.9577 -52.9553 -52.9550 -52.9489 -52.9384
   -52.9377 -52.9336 -52.9321 -52.9280 -52.9209 -52.9205 -52.9175 -52.9166
   -52.9094 -52.9067 -52.9031 -52.8942 -52.8909 -52.8875 -52.8844 -52.8657
   -52.8597 -52.7843 -52.7771 -52.7580 -52.7501 -52.7248 -52.7240 -52.7187
   -52.7177 -52.7138 -52.7010 -52.6953 -52.6909 -52.6876 -52.6808 -52.6651
   -52.6616 -52.6442 -52.6440 -52.6333 -52.6313 -52.6286 -52.6285 -52.6267
   -52.6237 -52.6232 -52.6174 -52.6160 -52.6127 -52.6110 -52.6072 -52.6030
   -25.7756 -23.7686 -21.4049 -16.2863 -14.4207 -12.7703 -10.3339  -9.3196
    -8.7392  -8.6058  -8.3598  -8.3400  -8.2879  -7.6709  -7.5524  -7.3954
    -7.3927  -6.9406  -6.8269  -6.8159  -6.5791  -6.5290  -6.4707  -6.3443
    -6.2902  -6.2885  -6.2845  -6.2703  -6.1798  -6.1630  -6.1041  -6.0978
    -6.0860  -6.0832  -5.9348  -5.9312  -5.9201  -5.9166  -5.9005  -5.8946
    -5.5420  -5.5173  -5.5148  -5.5029  -5.5019  -5.3865  -5.3616  -5.3572
    -5.3571  -5.3322  -5.3101  -5.2922  -5.2825  -5.2780  -5.2202  -5.0781
    -5.0734  -4.9937  -4.9845  -4.9836  -4.9781  -4.9549  -4.9376  -4.5317
    -4.5138  -4.4724  -4.3354  -4.3342  -4.1783  -4.1753  -4.1348  -4.1290
    -4.1262  -4.1184  -4.1068  -4.0937  -4.0233  -4.0127  -3.9916  -3.9871
    -3.9788  -3.9726  -3.9555  -3.9541  -3.9344  -3.8393  -3.8241  -3.8227
    -3.8095  -3.8070  -3.7881  -3.7837  -3.7834  -3.7697  -3.6698  -3.6126
    -3.5434  -3.5386  -3.4853  -3.4687  -3.3379  -3.3229  -3.2288  -3.2257
    -3.1991  -3.1826  -3.1751  -3.1594  -3.1414  -3.1270  -3.1190  -3.1068
    -3.0773  -3.0770  -2.7505  -2.7441  -2.7354  -2.7272  -2.6963  -2.6670
    -2.6584  -2.6468  -2.6375  -2.6154  -2.5047  -2.4970  -2.4754  -2.4717
    -2.4561  -2.4521  -2.3960  -2.3935  -2.2853  -2.2828  -2.2093  -2.1999
    -2.1940  -2.1762  -2.1593  -2.1426  -1.9646  -1.9553  -1.9397  -1.9264
    -1.9069  -1.9005  -1.8388  -1.7801  -1.7720  -1.7651  -1.7246  -1.6172
    -1.6102  -1.3816  -1.3810  -1.3691  -1.3649  -1.3503  -1.3498  -1.3443
    -1.3433  -1.2633  -1.2570  -1.2522  -1.2510  -1.2161  -1.2135  -1.2126
    -1.2019  -1.1322  -1.1308  -1.0574  -1.0529  -1.0506  -1.0110  -0.9813
    -0.9591  -0.9290  -0.9165  -0.9151  -0.8753  -0.7905  -0.7827  -0.6847
    -0.6703  -0.6600  -0.6494  -0.6093  -0.6080  -0.6060  -0.5810  -0.4703
    -0.4641

          k = 0.0450-0.0260 0.0000 ( 93226 PWs)   bands (ev):

   -53.2327 -53.2204 -53.2074 -53.2066 -53.2003 -53.1919 -53.1841 -53.1815
   -53.1788 -53.1781 -53.1760 -53.1702 -53.1672 -53.1583 -53.1514 -53.1477
   -53.1420 -53.1260 -53.1215 -53.1191 -53.1160 -53.1140 -53.1055 -53.1041
   -53.0862 -53.0712 -53.0567 -53.0420 -53.0187 -53.0163 -53.0099 -53.0038
   -53.0020 -52.9976 -52.9955 -52.9913 -52.9888 -52.9739 -52.9694 -52.9666
   -52.9663 -52.9627 -52.9625 -52.9587 -52.9564 -52.9538 -52.9506 -52.9381
   -52.9373 -52.9320 -52.9314 -52.9274 -52.9226 -52.9204 -52.9174 -52.9158
   -52.9099 -52.9069 -52.9036 -52.8940 -52.8893 -52.8880 -52.8849 -52.8640
   -52.8615 -52.7847 -52.7765 -52.7576 -52.7507 -52.7253 -52.7227 -52.7196
   -52.7175 -52.7138 -52.7022 -52.6938 -52.6924 -52.6842 -52.6826 -52.6648
   -52.6630 -52.6444 -52.6413 -52.6359 -52.6307 -52.6298 -52.6288 -52.6251
   -52.6241 -52.6230 -52.6171 -52.6155 -52.6122 -52.6118 -52.6075 -52.6028
   -25.7756 -23.7686 -21.4049 -16.2863 -14.4207 -12.7703 -10.3340  -9.3195
    -8.7394  -8.6056  -8.3522  -8.3448  -8.2910  -7.6710  -7.5532  -7.3962
    -7.3914  -6.9421  -6.8221  -6.8178  -6.5662  -6.5294  -6.4872  -6.3434
    -6.2921  -6.2886  -6.2881  -6.2644  -6.1827  -6.1753  -6.0978  -6.0933
    -6.0902  -6.0836  -5.9337  -5.9262  -5.9245  -5.9133  -5.8960  -5.8898
    -5.5493  -5.5121  -5.5091  -5.5062  -5.4945  -5.3759  -5.3755  -5.3595
    -5.3551  -5.3232  -5.3138  -5.2930  -5.2853  -5.2752  -5.2202  -5.0898
    -5.0722  -4.9998  -4.9890  -4.9826  -4.9793  -4.9526  -4.9363  -4.5294
    -4.5141  -4.4552  -4.3453  -4.3330  -4.1773  -4.1644  -4.1322  -4.1293
    -4.1254  -4.1179  -4.1134  -4.0992  -4.0200  -3.9987  -3.9946  -3.9872
    -3.9786  -3.9654  -3.9598  -3.9554  -3.9389  -3.8436  -3.8320  -3.8149
    -3.8100  -3.8078  -3.7862  -3.7844  -3.7828  -3.7697  -3.6782  -3.6173
    -3.5492  -3.5426  -3.4899  -3.4805  -3.3323  -3.3287  -3.2524  -3.2175
    -3.1905  -3.1893  -3.1634  -3.1527  -3.1401  -3.1288  -3.1181  -3.1085
    -3.0790  -3.0594  -2.7584  -2.7394  -2.7342  -2.7286  -2.6900  -2.6666
    -2.6595  -2.6476  -2.6367  -2.6159  -2.5059  -2.4826  -2.4721  -2.4704
    -2.4648  -2.4520  -2.4001  -2.3925  -2.2925  -2.2810  -2.2046  -2.2005
    -2.1966  -2.1862  -2.1483  -2.1422  -1.9669  -1.9539  -1.9399  -1.9243
    -1.9096  -1.9001  -1.8311  -1.7851  -1.7762  -1.7646  -1.7299  -1.6122
    -1.6110  -1.3797  -1.3773  -1.3728  -1.3634  -1.3513  -1.3501  -1.3436
    -1.3425  -1.2621  -1.2581  -1.2537  -1.2494  -1.2166  -1.2149  -1.2115
    -1.2012  -1.1336  -1.1292  -1.0609  -1.0542  -1.0499  -1.0105  -0.9828
    -0.9581  -0.9254  -0.9177  -0.9156  -0.8758  -0.7908  -0.7814  -0.6841
    -0.6705  -0.6606  -0.6502  -0.6088  -0.6070  -0.6067  -0.5818  -0.4677
    -0.4663

          k =-0.0450-0.0260 0.0000 ( 93226 PWs)   bands (ev):

   -53.2327 -53.2205 -53.2074 -53.2066 -53.2003 -53.1919 -53.1841 -53.1815
   -53.1788 -53.1781 -53.1760 -53.1701 -53.1672 -53.1583 -53.1514 -53.1477
   -53.1420 -53.1260 -53.1215 -53.1191 -53.1160 -53.1140 -53.1055 -53.1041
   -53.0862 -53.0712 -53.0568 -53.0420 -53.0187 -53.0163 -53.0099 -53.0038
   -53.0020 -52.9976 -52.9955 -52.9913 -52.9888 -52.9739 -52.9694 -52.9666
   -52.9663 -52.9627 -52.9625 -52.9587 -52.9563 -52.9538 -52.9507 -52.9381
   -52.9372 -52.9319 -52.9314 -52.9274 -52.9226 -52.9204 -52.9174 -52.9159
   -52.9099 -52.9070 -52.9036 -52.8940 -52.8893 -52.8880 -52.8849 -52.8640
   -52.8616 -52.7847 -52.7765 -52.7576 -52.7507 -52.7253 -52.7227 -52.7196
   -52.7175 -52.7138 -52.7021 -52.6938 -52.6924 -52.6843 -52.6827 -52.6648
   -52.6630 -52.6444 -52.6413 -52.6359 -52.6308 -52.6298 -52.6287 -52.6251
   -52.6241 -52.6230 -52.6171 -52.6155 -52.6122 -52.6118 -52.6075 -52.6028
   -25.7756 -23.7686 -21.4049 -16.2863 -14.4207 -12.7703 -10.3340  -9.3195
    -8.7393  -8.6056  -8.3524  -8.3446  -8.2909  -7.6710  -7.5532  -7.3961
    -7.3915  -6.9421  -6.8222  -6.8177  -6.5665  -6.5295  -6.4869  -6.3434
    -6.2921  -6.2886  -6.2881  -6.2645  -6.1826  -6.1753  -6.0977  -6.0933
    -6.0903  -6.0838  -5.9337  -5.9262  -5.9244  -5.9134  -5.8959  -5.8898
    -5.5493  -5.5122  -5.5091  -5.5062  -5.4948  -5.3760  -5.3747  -5.3595
    -5.3551  -5.3239  -5.3138  -5.2930  -5.2853  -5.2753  -5.2202  -5.0893
    -5.0722  -4.9990  -4.9891  -4.9827  -4.9794  -4.9529  -4.9363  -4.5293
    -4.5140  -4.4562  -4.3451  -4.3325  -4.1786  -4.1635  -4.1322  -4.1293
    -4.1254  -4.1177  -4.1132  -4.0994  -4.0216  -3.9989  -3.9943  -3.9872
    -3.9783  -3.9652  -3.9599  -3.9554  -3.9363  -3.8445  -3.8319  -3.8151
    -3.8100  -3.8078  -3.7863  -3.7845  -3.7828  -3.7699  -3.6788  -3.6160
    -3.5492  -3.5426  -3.4895  -3.4809  -3.3324  -3.3287  -3.2524  -3.2173
    -3.1904  -3.1893  -3.1634  -3.1531  -3.1401  -3.1288  -3.1180  -3.1085
    -3.0790  -3.0598  -2.7584  -2.7394  -2.7343  -2.7286  -2.6899  -2.6666
    -2.6595  -2.6476  -2.6367  -2.6160  -2.5059  -2.4828  -2.4720  -2.4704
    -2.4642  -2.4523  -2.4001  -2.3925  -2.2923  -2.2810  -2.2046  -2.2006
    -2.1964  -2.1863  -2.1483  -2.1424  -1.9668  -1.9539  -1.9400  -1.9242
    -1.9095  -1.9002  -1.8314  -1.7851  -1.7761  -1.7646  -1.7298  -1.6122
    -1.6110  -1.3798  -1.3774  -1.3728  -1.3634  -1.3512  -1.3501  -1.3436
    -1.3425  -1.2621  -1.2581  -1.2537  -1.2495  -1.2166  -1.2149  -1.2115
    -1.2011  -1.1336  -1.1292  -1.0608  -1.0542  -1.0499  -1.0106  -0.9828
    -0.9581  -0.9254  -0.9177  -0.9156  -0.8757  -0.7908  -0.7814  -0.6841
    -0.6705  -0.6606  -0.6502  -0.6088  -0.6069  -0.6068  -0.5819  -0.4677
    -0.4663

     the Fermi energy is    -0.7072 ev

!    total energy              =   -6904.42768629 Ry
     Harris-Foulkes estimate   =   -6904.42768700 Ry
     estimated scf accuracy    <       0.00000040 Ry

     The total energy is the sum of the following terms:

     one-electron contribution =  -62200.42247147 Ry
     hartree contribution      =   31152.22585937 Ry
     xc contribution           =   -1863.36234626 Ry
     ewald contribution        =   26007.27285999 Ry
     smearing contrib. (-TS)   =      -0.14158792 Ry

     convergence has been achieved in  26 iterations

     Forces acting on atoms (Ry/au):


     negative rho (up, down):  5.654E+00 0.000E+00
     atom    1 type  1   force =     0.00000384    0.00056131    0.00452126
     atom    2 type  1   force =    -0.00023170   -0.00002343   -0.00500148
     atom    3 type  1   force =    -0.00022895   -0.00061154    0.00421536
     atom    4 type  1   force =     0.00000384   -0.00042911   -0.00495573
     atom    5 type  1   force =     0.00047569    0.00033736    0.00428307
     atom    6 type  1   force =     0.00170574    0.00120948   -0.00440434
     atom    7 type  1   force =    -0.00017722   -0.00010095    0.00397996
     atom    8 type  1   force =    -0.00003900   -0.00008192   -0.00474602
     atom    9 type  1   force =     0.00020055    0.00057090    0.00389439
     atom   10 type  1   force =    -0.00034745   -0.00141866   -0.00624632
     atom   11 type  1   force =     0.00023913   -0.00061335    0.00423767
     atom   12 type  1   force =    -0.00217025   -0.00033144   -0.00619505
     atom   13 type  1   force =     0.00000417   -0.00038145    0.00481671
     atom   14 type  1   force =    -0.00169229    0.00120446   -0.00441924
     atom   15 type  1   force =    -0.00035918    0.00041620    0.00491115
     atom   16 type  1   force =     0.00000384   -0.00093733   -0.00434860
     atom   17 type  1   force =     0.00000283   -0.00044195    0.00526841
     atom   18 type  1   force =     0.00034914   -0.00141573   -0.00623285
     atom   19 type  1   force =    -0.00114615   -0.00096818    0.00525791
     atom   20 type  1   force =     0.00007755    0.00310580    0.00344539
     atom   21 type  1   force =    -0.00048555    0.00033684    0.00429839
     atom   22 type  1   force =    -0.00187013    0.00295615   -0.00612181
     atom   23 type  1   force =     0.00036187    0.00041762    0.00491049
     atom   24 type  1   force =     0.00003211   -0.00008226   -0.00474207
     atom   25 type  1   force =    -0.00020637    0.00055966    0.00388252
     atom   26 type  1   force =     0.00025728   -0.00003799   -0.00499740
     atom   27 type  1   force =     0.00114730   -0.00096570    0.00520890
     atom   28 type  1   force =     0.00219322   -0.00033498   -0.00617665
     atom   29 type  1   force =     0.00000337    0.00160350    0.00222542
     atom   30 type  1   force =     0.00189135    0.00297429   -0.00610913
     atom   31 type  1   force =     0.00017255   -0.00010073    0.00399360
     atom   32 type  1   force =    -0.00000184    0.00114421   -0.00463730
     atom   33 type  2   force =     0.00817524    0.30507207   -0.38125127
     atom   34 type  2   force =     0.00017357    0.01921102    0.01219649
     atom   35 type  2   force =     0.01326062   -0.59135431    0.58359780
     atom   36 type  3   force =     0.00147980   -0.02662392    0.14047805
     atom   37 type  3   force =     0.00058159    0.05987406   -0.10025272
     atom   38 type  3   force =    -0.00683272   -0.30811196    0.35642191
     atom   39 type  3   force =    -0.00433986   -0.05483806    0.05364501
     atom   40 type  3   force =    -0.01429655    0.55419684   -0.61426684
     atom   41 type  4   force =    -0.03265447    0.02322478   -0.02129931
     atom   42 type  4   force =     0.03080769    0.02239270   -0.02060186
     atom   43 type  4   force =    -0.03124027   -0.02712515    0.01599176
     atom   44 type  4   force =     0.03087479   -0.02772201    0.01517027
     atom   45 type  4   force =     0.03216827    0.01507746   -0.02188166
     atom   46 type  4   force =    -0.02883615    0.01480912   -0.02284562
     atom   47 type  4   force =     0.00039307    0.02974403    0.00350127
     atom   48 type  4   force =     0.00011611   -0.01594775    0.00738010

     Total force =     1.374529     Total SCF correction =     0.001429
 !ASE

     Writing output data file calc.save
     Check: negative starting charge=   -5.902925
     NEW-OLD atomic charge density approx. for the potential
     Check: negative starting charge=   -5.897948

     negative rho (up, down):  5.648E+00 0.000E+00

     total cpu time spent up to now is    11926.2 secs

     per-process dynamical memory:   420.7 Mb

     Self-consistent Calculation

     iteration #  1     ecut=    40.42 Ry     beta=0.20
     Davidson diagonalization with overlap
     c_bands:  5 eigenvalues not converged
     c_bands:  4 eigenvalues not converged
     c_bands:  5 eigenvalues not converged
     ethr =  1.83E-10,  avg # of iterations = 21.0

     negative rho (up, down):  5.648E+00 0.000E+00

     total cpu time spent up to now is    12530.4 secs

     total energy              =   -6904.60021605 Ry
     Harris-Foulkes estimate   =   -6904.60713576 Ry
     estimated scf accuracy    <       0.07236864 Ry

     iteration #  2     ecut=    40.42 Ry     beta=0.20
     Davidson diagonalization with overlap
     ethr =  1.30E-05,  avg # of iterations =  1.0

     negative rho (up, down):  5.655E+00 0.000E+00

     total cpu time spent up to now is    12668.1 secs

     total energy              =   -6904.58505989 Ry
     Harris-Foulkes estimate   =   -6904.60053997 Ry
     estimated scf accuracy    <       0.04816965 Ry

     iteration #  3     ecut=    40.42 Ry     beta=0.20
     Davidson diagonalization with overlap
     ethr =  8.63E-06,  avg # of iterations =  3.0

     negative rho (up, down):  5.655E+00 0.000E+00

     total cpu time spent up to now is    12816.7 secs

     total energy              =   -6904.58479244 Ry
     Harris-Foulkes estimate   =   -6904.58797293 Ry
     estimated scf accuracy    <       0.01224239 Ry

     iteration #  4     ecut=    40.42 Ry     beta=0.20
     Davidson diagonalization with overlap
     ethr =  2.19E-06,  avg # of iterations =  3.0

     negative rho (up, down):  5.656E+00 0.000E+00

     total cpu time spent up to now is    12965.5 secs

     total energy              =   -6904.58476929 Ry
     Harris-Foulkes estimate   =   -6904.58552488 Ry
     estimated scf accuracy    <       0.00402478 Ry

     iteration #  5     ecut=    40.42 Ry     beta=0.20
     Davidson diagonalization with overlap
     ethr =  7.21E-07,  avg # of iterations =  4.5

     negative rho (up, down):  5.651E+00 0.000E+00

     total cpu time spent up to now is    13118.6 secs

     total energy              =   -6904.58487421 Ry
     Harris-Foulkes estimate   =   -6904.58499908 Ry
     estimated scf accuracy    <       0.00164755 Ry

     iteration #  6     ecut=    40.42 Ry     beta=0.20
     Davidson diagonalization with overlap
     ethr =  2.95E-07,  avg # of iterations =  4.8

     negative rho (up, down):  5.648E+00 0.000E+00

     total cpu time spent up to now is    13265.0 secs

     total energy              =   -6904.58496352 Ry
     Harris-Foulkes estimate   =   -6904.58496079 Ry
     estimated scf accuracy    <       0.00083847 Ry

     iteration #  7     ecut=    40.42 Ry     beta=0.20
     Davidson diagonalization with overlap
     ethr =  1.50E-07,  avg # of iterations =  2.8

     negative rho (up, down):  5.647E+00 0.000E+00

     total cpu time spent up to now is    13408.7 secs

     total energy              =   -6904.58495089 Ry
     Harris-Foulkes estimate   =   -6904.58498865 Ry
     estimated scf accuracy    <       0.00069778 Ry

     iteration #  8     ecut=    40.42 Ry     beta=0.20
     Davidson diagonalization with overlap
     ethr =  1.25E-07,  avg # of iterations =  3.0

     negative rho (up, down):  5.646E+00 0.000E+00

     total cpu time spent up to now is    13551.4 secs

     total energy              =   -6904.58498713 Ry
     Harris-Foulkes estimate   =   -6904.58498234 Ry
     estimated scf accuracy    <       0.00034183 Ry

     iteration #  9     ecut=    40.42 Ry     beta=0.20
     Davidson diagonalization with overlap
     ethr =  6.13E-08,  avg # of iterations =  3.5

     negative rho (up, down):  5.646E+00 0.000E+00

     total cpu time spent up to now is    13692.5 secs

     total energy              =   -6904.58496712 Ry
     Harris-Foulkes estimate   =   -6904.58499187 Ry
     estimated scf accuracy    <       0.00029912 Ry

     iteration # 10     ecut=    40.42 Ry     beta=0.20
     Davidson diagonalization with overlap
     ethr =  5.36E-08,  avg # of iterations =  2.2

     negative rho (up, down):  5.646E+00 0.000E+00

     total cpu time spent up to now is    13830.8 secs

     total energy              =   -6904.58498107 Ry
     Harris-Foulkes estimate   =   -6904.58497609 Ry
     estimated scf accuracy    <       0.00025288 Ry

     iteration # 11     ecut=    40.42 Ry     beta=0.20
     Davidson diagonalization with overlap
     ethr =  4.53E-08,  avg # of iterations =  1.0

[...]
   -53.2069 -53.2059 -53.1975 -53.1967 -53.1946 -53.1845 -53.1737 -53.1732
   -53.1727 -53.1680 -53.1654 -53.1574 -53.1569 -53.1563 -53.1433 -53.1281
   -53.1224 -53.1207 -53.1098 -53.1061 -53.0882 -53.0846 -53.0772 -53.0506
   -53.0466 -53.0382 -53.0310 -53.0287 -53.0280 -53.0263 -53.0109 -53.0080
   -52.9679 -52.9615 -52.9577 -52.9532 -52.9528 -52.9510 -52.9494 -52.9446
   -52.9416 -52.9354 -52.9331 -52.9311 -52.9281 -52.9269 -52.9260 -52.9254
   -23.4248 -21.7324 -21.1510 -15.7447 -14.3544 -12.7934 -10.5288  -9.1957
    -8.7886  -8.2011  -7.9928  -7.8421  -7.7872  -7.7818  -7.5570  -7.5243
    -7.2149  -7.2134  -7.1263  -6.9114  -6.8270  -6.7941  -6.7940  -6.7282
    -6.7099  -6.6793  -6.6776  -6.6157  -6.4567  -6.3392  -6.3111  -6.3109
    -6.2796  -6.2789  -6.1722  -6.1718  -6.1470  -6.1467  -5.9877  -5.9872
    -5.9752  -5.8589  -5.8573  -5.8337  -5.8025  -5.8021  -5.6102  -5.6085
    -5.5920  -5.5910  -5.5133  -5.4981  -5.4973  -5.4822  -5.4721  -5.4507
    -5.4076  -5.4050  -5.3119  -5.3081  -4.9632  -4.9409  -4.9255  -4.8626
    -4.7296  -4.6396  -4.6378  -4.5987  -4.5545  -4.4993  -4.4989  -4.4954
    -4.3058  -4.3049  -4.2912  -4.2899  -4.2867  -4.2798  -4.2781  -4.2487
    -4.2233  -4.2036  -4.2017  -4.1891  -4.1882  -4.1200  -4.0807  -4.0800
    -4.0393  -4.0389  -3.9979  -3.9948  -3.9934  -3.9849  -3.9706  -3.9486
    -3.9460  -3.8788  -3.8782  -3.7979  -3.6659  -3.6533  -3.6511  -3.6505
    -3.6001  -3.5793  -3.5660  -3.5410  -3.5354  -3.4752  -3.4226  -3.4172
    -3.3663  -3.3654  -3.3588  -3.3265  -3.3257  -3.2731  -3.2371  -3.1912
    -3.1472  -3.1458  -3.1217  -3.0657  -3.0336  -3.0327  -2.9909  -2.9909
    -2.7028  -2.7023  -2.6237  -2.5223  -2.5063  -2.4377  -2.4253  -2.4146
    -2.3968  -2.3621  -2.3486  -2.2678  -2.1966  -2.1449  -2.0522  -2.0521
    -2.0351  -2.0332  -2.0324  -1.9781  -1.9757  -1.9508  -1.9424  -1.9193
    -1.9165  -1.9094  -1.8988  -1.8391  -1.8383  -1.7681  -1.7449  -1.7434
    -1.6840  -1.6801  -1.5691  -1.5685  -1.5682  -1.5654  -1.4940  -1.4859
    -1.3943  -1.3223  -1.3216  -1.2527  -1.1125  -1.1111  -1.0844  -1.0832
    -0.9933  -0.9872  -0.9802  -0.9634  -0.9612  -0.8920  -0.8891  -0.8697
    -0.8358  -0.8349  -0.8294  -0.8262  -0.5808  -0.5512  -0.5507  -0.5420
    -0.5203

          k = 0.0450-0.0260 0.0000 ( 93226 PWs)   bands (ev):

   -53.4872 -53.4864 -53.4860 -53.4853 -53.4634 -53.4622 -53.4566 -53.4557
   -53.4554 -53.4547 -53.4524 -53.4512 -53.4327 -53.4315 -53.4221 -53.4210
   -53.4043 -53.4037 -53.4029 -53.4024 -53.3849 -53.3843 -53.3836 -53.3830
   -53.3593 -53.3575 -53.3149 -53.3133 -53.2890 -53.2873 -53.2805 -53.2789
   -53.2786 -53.2780 -53.2761 -53.2750 -53.2436 -53.2433 -53.2424 -53.2418
   -53.2381 -53.2372 -53.2309 -53.2293 -53.2289 -53.2285 -53.2085 -53.2077
   -53.2017 -53.2014 -53.2007 -53.2000 -53.1952 -53.1941 -53.1895 -53.1887
   -53.1865 -53.1857 -53.1687 -53.1679 -53.1598 -53.1589 -53.1340 -53.1318
   -53.1312 -53.1303 -53.1120 -53.1083 -53.0742 -53.0671 -53.0668 -53.0663
   -53.0558 -53.0541 -53.0317 -53.0283 -53.0282 -53.0265 -53.0021 -52.9988
   -52.9728 -52.9679 -52.9586 -52.9529 -52.9528 -52.9512 -52.9437 -52.9418
   -52.9388 -52.9358 -52.9354 -52.9351 -52.9280 -52.9265 -52.9254 -52.9249
   -23.4248 -21.7324 -21.1510 -15.7447 -14.3544 -12.7934 -10.5288  -8.8003
    -8.7931  -8.7836  -7.9936  -7.8574  -7.8546  -7.8390  -7.5405  -7.1461
    -7.1447  -6.9535  -6.9527  -6.8275  -6.7640  -6.7601  -6.7596  -6.7595
    -6.7059  -6.5451  -6.5446  -6.5180  -6.5172  -6.5167  -6.5166  -6.4549
    -6.3150  -6.3143  -6.3140  -6.3133  -6.2473  -6.2463  -5.8824  -5.8816
    -5.8813  -5.8810  -5.8482  -5.8416  -5.8398  -5.8396  -5.8302  -5.7910
    -5.7905  -5.7894  -5.7889  -5.5531  -5.5480  -5.4856  -5.4384  -5.4375
    -5.4372  -5.4228  -5.4053  -5.4021  -4.9530  -4.8946  -4.8920  -4.8627
    -4.7205  -4.7146  -4.5986  -4.4430  -4.4414  -4.3940  -4.3937  -4.3920
    -4.3910  -4.3740  -4.3707  -4.3107  -4.3082  -4.2776  -4.2759  -4.2758
    -4.2754  -4.2513  -4.2506  -4.2495  -4.1937  -4.1916  -4.1637  -4.1611
    -4.1610  -4.1573  -4.0743  -4.0736  -4.0649  -4.0632  -3.8344  -3.8318
    -3.8312  -3.8294  -3.6796  -3.6786  -3.6213  -3.6164  -3.6158  -3.6149
    -3.5944  -3.5604  -3.5503  -3.5337  -3.5325  -3.4755  -3.4677  -3.3558
    -3.3521  -3.1626  -3.1606  -3.1112  -3.1109  -3.1099  -3.1097  -3.0407
    -3.0398  -2.9945  -2.9866  -2.8055  -2.8026  -2.7852  -2.7838  -2.7830
    -2.7819  -2.7235  -2.7229  -2.5479  -2.5341  -2.5041  -2.4994  -2.4979
    -2.4976  -2.4635  -2.4519  -2.3309  -2.1581  -2.1570  -2.1540  -2.1349
    -2.1333  -2.1315  -2.0466  -2.0351  -2.0339  -2.0240  -1.8521  -1.8472
    -1.6228  -1.6222  -1.6219  -1.6208  -1.5268  -1.5250  -1.5241  -1.5234
    -1.4879  -1.4462  -1.4444  -1.4432  -1.4425  -1.4297  -1.4287  -1.3977
    -1.3967  -1.3818  -1.3803  -1.2980  -1.2798  -1.2648  -1.2592  -1.1693
    -1.1661  -1.1347  -1.1337  -1.1330  -1.1282  -0.9796  -0.9777  -0.9100
    -0.9097  -0.8829  -0.8818  -0.8050  -0.8030  -0.8018  -0.8007  -0.7164
    -0.7162

          k =-0.0450-0.0260 0.0000 ( 93226 PWs)   bands (ev):

   -53.4871 -53.4864 -53.4859 -53.4853 -53.4634 -53.4622 -53.4566 -53.4557
   -53.4554 -53.4548 -53.4523 -53.4512 -53.4327 -53.4315 -53.4221 -53.4210
   -53.4043 -53.4036 -53.4029 -53.4024 -53.3848 -53.3843 -53.3836 -53.3830
   -53.3593 -53.3575 -53.3149 -53.3133 -53.2890 -53.2873 -53.2805 -53.2789
   -53.2787 -53.2780 -53.2761 -53.2751 -53.2436 -53.2433 -53.2424 -53.2418
   -53.2381 -53.2372 -53.2308 -53.2293 -53.2289 -53.2285 -53.2085 -53.2077
   -53.2017 -53.2015 -53.2007 -53.2000 -53.1951 -53.1941 -53.1895 -53.1888
   -53.1865 -53.1857 -53.1687 -53.1679 -53.1598 -53.1589 -53.1340 -53.1318
   -53.1312 -53.1303 -53.1120 -53.1083 -53.0742 -53.0671 -53.0668 -53.0663
   -53.0557 -53.0541 -53.0317 -53.0283 -53.0281 -53.0266 -53.0020 -52.9988
   -52.9728 -52.9680 -52.9585 -52.9529 -52.9529 -52.9512 -52.9438 -52.9418
   -52.9388 -52.9357 -52.9354 -52.9351 -52.9280 -52.9265 -52.9254 -52.9250
   -23.4248 -21.7324 -21.1510 -15.7447 -14.3544 -12.7934 -10.5288  -8.8003
    -8.7931  -8.7835  -7.9938  -7.8571  -7.8521  -7.8417  -7.5404  -7.1461
    -7.1448  -6.9535  -6.9527  -6.8272  -6.7645  -6.7601  -6.7596  -6.7595
    -6.7057  -6.5452  -6.5446  -6.5180  -6.5172  -6.5166  -6.5166  -6.4548
    -6.3150  -6.3143  -6.3141  -6.3133  -6.2473  -6.2464  -5.8825  -5.8816
    -5.8814  -5.8811  -5.8472  -5.8419  -5.8398  -5.8396  -5.8314  -5.7908
    -5.7905  -5.7892  -5.7884  -5.5536  -5.5480  -5.4865  -5.4384  -5.4375
    -5.4372  -5.4213  -5.4053  -5.4025  -4.9531  -4.8946  -4.8919  -4.8627
    -4.7205  -4.7145  -4.5988  -4.4430  -4.4414  -4.3943  -4.3937  -4.3919
    -4.3911  -4.3734  -4.3708  -4.3107  -4.3083  -4.2777  -4.2759  -4.2758
    -4.2754  -4.2513  -4.2506  -4.2494  -4.1939  -4.1917  -4.1635  -4.1613
    -4.1611  -4.1575  -4.0741  -4.0737  -4.0648  -4.0632  -3.8353  -3.8317
    -3.8311  -3.8293  -3.6796  -3.6786  -3.6219  -3.6165  -3.6156  -3.6149
    -3.5913  -3.5574  -3.5538  -3.5337  -3.5325  -3.4755  -3.4689  -3.3558
    -3.3522  -3.1625  -3.1607  -3.1112  -3.1110  -3.1100  -3.1098  -3.0406
    -3.0399  -2.9951  -2.9862  -2.8055  -2.8022  -2.7850  -2.7838  -2.7831
    -2.7820  -2.7234  -2.7228  -2.5471  -2.5343  -2.5041  -2.4991  -2.4980
    -2.4976  -2.4654  -2.4519  -2.3301  -2.1581  -2.1572  -2.1539  -2.1349
    -2.1333  -2.1320  -2.0462  -2.0350  -2.0340  -2.0238  -1.8521  -1.8471
    -1.6228  -1.6222  -1.6218  -1.6209  -1.5268  -1.5250  -1.5241  -1.5234
    -1.4878  -1.4461  -1.4444  -1.4433  -1.4425  -1.4297  -1.4287  -1.3977
    -1.3967  -1.3818  -1.3803  -1.2976  -1.2804  -1.2647  -1.2594  -1.1693
    -1.1660  -1.1347  -1.1337  -1.1330  -1.1280  -0.9796  -0.9777  -0.9100
    -0.9097  -0.8828  -0.8819  -0.8049  -0.8029  -0.8020  -0.8009  -0.7164
    -0.7162

          k =-0.0225 0.0390 0.0000 ( 93177 PWs)   bands (ev):

   -53.4978 -53.4818 -53.4813 -53.4757 -53.4756 -53.4656 -53.4538 -53.4526
   -53.4508 -53.4505 -53.4449 -53.4447 -53.4343 -53.4341 -53.4296 -53.4275
   -53.4265 -53.4072 -53.4060 -53.4056 -53.3828 -53.3818 -53.3813 -53.3457
   -53.3438 -53.3410 -53.3323 -53.3313 -53.3170 -53.3167 -53.2842 -53.2703
   -53.2699 -53.2646 -53.2639 -53.2520 -53.2511 -53.2454 -53.2417 -53.2415
   -53.2372 -53.2367 -53.2333 -53.2240 -53.2235 -53.2188 -53.2180 -53.2176
   -53.2173 -53.2094 -53.2005 -53.1996 -53.1937 -53.1886 -53.1881 -53.1813
   -53.1805 -53.1799 -53.1778 -53.1777 -53.1641 -53.1414 -53.1412 -53.1332
   -53.1291 -53.1262 -53.1236 -53.0927 -53.0887 -53.0706 -53.0646 -53.0623
   -53.0484 -53.0456 -53.0431 -53.0415 -53.0212 -53.0146 -53.0133 -52.9930
   -52.9761 -52.9639 -52.9604 -52.9576 -52.9499 -52.9462 -52.9449 -52.9440
   -52.9392 -52.9381 -52.9355 -52.9310 -52.9298 -52.9263 -52.9254 -52.9249
   -23.4248 -21.7324 -21.1510 -15.7447 -14.3544 -12.7934 -10.5288  -8.9243
    -8.7885  -8.4214  -8.4179  -7.9913  -7.8420  -7.5457  -7.2699  -7.2264
    -7.2250  -6.9102  -6.9095  -6.8274  -6.8214  -6.8210  -6.7867  -6.7831
    -6.7092  -6.6679  -6.5674  -6.5669  -6.5348  -6.5341  -6.4933  -6.4557
    -6.4018  -6.3231  -6.3225  -6.1209  -6.1199  -6.1125  -6.1122  -5.9478
    -5.9475  -5.8958  -5.8676  -5.8664  -5.8337  -5.8019  -5.8009  -5.6896
    -5.6886  -5.6829  -5.6820  -5.6715  -5.6360  -5.6335  -5.4743  -5.4286
    -5.3393  -5.3186  -5.2821  -5.1522  -5.1516  -4.9516  -4.8637  -4.8069
    -4.8038  -4.7931  -4.6269  -4.6257  -4.5986  -4.4799  -4.4775  -4.4208
    -4.4202  -4.4191  -4.3942  -4.3553  -4.3144  -4.3119  -4.2839  -4.2826
    -4.2799  -4.2783  -4.2770  -4.2756  -4.2471  -4.1711  -4.1531  -4.1492
    -4.1334  -4.1321  -3.9927  -3.9620  -3.9507  -3.9495  -3.8131  -3.8062
    -3.7615  -3.7219  -3.6718  -3.6446  -3.6338  -3.6277  -3.6075  -3.5766
    -3.4180  -3.4165  -3.4094  -3.4074  -3.3753  -3.3739  -3.3234  -3.3225
    -3.2770  -3.2762  -3.2293  -3.2278  -3.2188  -3.1458  -3.1410  -3.0728
    -3.0711  -3.0501  -3.0489  -2.9235  -2.9211  -2.9162  -2.9144  -2.8780
    -2.8750  -2.8722  -2.6747  -2.6728  -2.5919  -2.4933  -2.4784  -2.3711
    -2.3103  -2.3066  -2.2995  -2.2944  -2.2564  -2.2042  -2.1336  -2.0900
    -2.0747  -2.0743  -2.0245  -2.0176  -1.9507  -1.9447  -1.9032  -1.8974
    -1.8003  -1.7988  -1.7307  -1.7220  -1.5316  -1.5290  -1.5280  -1.5141
    -1.5133  -1.5115  -1.5016  -1.5011  -1.4781  -1.4276  -1.4268  -1.4247
    -1.3892  -1.3866  -1.3023  -1.3013  -1.2597  -1.2572  -1.2314  -1.2217
    -1.1958  -1.1616  -1.0311  -1.0299  -1.0261  -0.9976  -0.9955  -0.9601
    -0.9561  -0.8783  -0.8763  -0.8553  -0.8459  -0.8414  -0.8402  -0.7579
    -0.7572

          k = 0.0450 0.0000 0.0000 ( 93177 PWs)   bands (ev):

   -53.4978 -53.4817 -53.4813 -53.4757 -53.4755 -53.4656 -53.4541 -53.4524
   -53.4508 -53.4505 -53.4449 -53.4448 -53.4344 -53.4341 -53.4296 -53.4276
   -53.4264 -53.4072 -53.4058 -53.4057 -53.3828 -53.3818 -53.3813 -53.3462
   -53.3435 -53.3410 -53.3325 -53.3309 -53.3170 -53.3167 -53.2842 -53.2703
   -53.2698 -53.2646 -53.2641 -53.2523 -53.2508 -53.2454 -53.2417 -53.2414
   -53.2372 -53.2366 -53.2334 -53.2241 -53.2236 -53.2188 -53.2181 -53.2174
   -53.2172 -53.2095 -53.2007 -53.1993 -53.1937 -53.1887 -53.1879 -53.1813
   -53.1808 -53.1797 -53.1778 -53.1777 -53.1641 -53.1413 -53.1413 -53.1332
   -53.1291 -53.1262 -53.1237 -53.0931 -53.0882 -53.0710 -53.0644 -53.0623
   -53.0483 -53.0459 -53.0434 -53.0410 -53.0214 -53.0146 -53.0131 -52.9929
   -52.9764 -52.9638 -52.9603 -52.9576 -52.9503 -52.9455 -52.9449 -52.9443
   -52.9393 -52.9380 -52.9352 -52.9319 -52.9292 -52.9263 -52.9253 -52.9250
   -23.4248 -21.7324 -21.1510 -15.7447 -14.3544 -12.7934 -10.5288  -8.9242
    -8.7886  -8.4211  -8.4182  -7.9914  -7.8420  -7.5458  -7.2700  -7.2268
    -7.2243  -6.9104  -6.9095  -6.8279  -6.8211  -6.8208  -6.7861  -6.7837
    -6.7100  -6.6667  -6.5678  -6.5671  -6.5347  -6.5342  -6.4936  -6.4551
    -6.4018  -6.3230  -6.3228  -6.1205  -6.1203  -6.1128  -6.1121  -5.9477
    -5.9475  -5.8951  -5.8684  -5.8670  -5.8327  -5.8018  -5.8011  -5.6895
    -5.6883  -5.6836  -5.6819  -5.6715  -5.6357  -5.6338  -5.4746  -5.4280
    -5.3393  -5.3184  -5.2823  -5.1527  -5.1512  -4.9518  -4.8636  -4.8065
    -4.8029  -4.7940  -4.6269  -4.6258  -4.5986  -4.4800  -4.4776  -4.4209
    -4.4198  -4.4193  -4.3943  -4.3557  -4.3137  -4.3119  -4.2844  -4.2829
    -4.2798  -4.2782  -4.2767  -4.2759  -4.2470  -4.1710  -4.1528  -4.1492
    -4.1333  -4.1320  -3.9939  -3.9622  -3.9506  -3.9497  -3.8101  -3.8062
    -3.7614  -3.7232  -3.6730  -3.6447  -3.6291  -3.6274  -3.6075  -3.5837
    -3.4183  -3.4162  -3.4094  -3.4036  -3.3762  -3.3751  -3.3240  -3.3223
    -3.2769  -3.2763  -3.2289  -3.2274  -3.2187  -3.1456  -3.1415  -3.0730
    -3.0712  -3.0499  -3.0485  -2.9237  -2.9220  -2.9160  -2.9149  -2.8783
    -2.8732  -2.8711  -2.6740  -2.6716  -2.5944  -2.4938  -2.4792  -2.3756
    -2.3105  -2.3043  -2.3013  -2.2964  -2.2474  -2.2027  -2.1335  -2.0921
    -2.0751  -2.0744  -2.0246  -2.0187  -1.9508  -1.9444  -1.9037  -1.8955
    -1.8004  -1.7988  -1.7316  -1.7219  -1.5315  -1.5292  -1.5283  -1.5136
    -1.5131  -1.5123  -1.5016  -1.5002  -1.4778  -1.4276  -1.4270  -1.4248
    -1.3888  -1.3867  -1.3025  -1.3013  -1.2604  -1.2567  -1.2308  -1.2235
    -1.1956  -1.1613  -1.0311  -1.0299  -1.0258  -0.9974  -0.9957  -0.9607
    -0.9558  -0.8782  -0.8769  -0.8542  -0.8454  -0.8412  -0.8405  -0.7583
    -0.7570

     the Fermi energy is    -0.9169 ev

!    total energy              =   -6904.62187636 Ry
     Harris-Foulkes estimate   =   -6904.62187654 Ry
     estimated scf accuracy    <       0.00000035 Ry

     The total energy is the sum of the following terms:

     one-electron contribution =  -62280.91893080 Ry
     hartree contribution      =   31187.77001711 Ry
     xc contribution           =   -1863.67038324 Ry
     ewald contribution        =   26052.35004093 Ry
     smearing contrib. (-TS)   =      -0.15262035 Ry

     convergence has been achieved in  45 iterations

     Forces acting on atoms (Ry/au):


     negative rho (up, down):  5.660E+00 0.000E+00
     atom    1 type  1   force =     0.00000319   -0.00003420   -0.01960456
     atom    2 type  1   force =     0.00017567   -0.00003261    0.01957703
     atom    3 type  1   force =    -0.00015816   -0.00029386   -0.01989316
     atom    4 type  1   force =    -0.00000908    0.00007781    0.01980555
     atom    5 type  1   force =     0.00034166    0.00022387   -0.01974415
     atom    6 type  1   force =    -0.00007649   -0.00006321    0.01982022
     atom    7 type  1   force =    -0.00031996    0.00002060   -0.01980983
     atom    8 type  1   force =    -0.00000160    0.00008138    0.01978784
     atom    9 type  1   force =    -0.00024750    0.00024000   -0.02008095
     atom   10 type  1   force =    -0.00033132   -0.00118060    0.01944794
     atom   11 type  1   force =     0.00018054   -0.00027170   -0.01986335
     atom   12 type  1   force =    -0.00075409    0.00028205    0.01944127
     atom   13 type  1   force =    -0.00001247   -0.00008024   -0.01988846
     atom   14 type  1   force =     0.00007394   -0.00006937    0.01980240
     atom   15 type  1   force =    -0.00012412    0.00002472   -0.01982195
     atom   16 type  1   force =     0.00001240    0.00020669    0.02003096
     atom   17 type  1   force =     0.00000455   -0.00039778   -0.01986233
     atom   18 type  1   force =     0.00030673   -0.00114516    0.01955567
     atom   19 type  1   force =     0.00037898    0.00030020   -0.01963293
     atom   20 type  1   force =    -0.00000168    0.00015055    0.02078496
     atom   21 type  1   force =    -0.00034053    0.00020431   -0.01972011
     atom   22 type  1   force =    -0.00060695    0.00048044    0.01963097
     atom   23 type  1   force =     0.00013829    0.00004017   -0.01983072
     atom   24 type  1   force =    -0.00002081    0.00008186    0.01977676
     atom   25 type  1   force =     0.00023424    0.00025116   -0.02010638
     atom   26 type  1   force =    -0.00018110   -0.00001546    0.01957880
     atom   27 type  1   force =    -0.00041661    0.00030186   -0.01957917
     atom   28 type  1   force =     0.00074767    0.00027577    0.01951649
     atom   29 type  1   force =     0.00001319   -0.00067348   -0.01904096
     atom   30 type  1   force =     0.00060800    0.00048983    0.01967325
     atom   31 type  1   force =     0.00031042    0.00000325   -0.01981109
     atom   32 type  1   force =     0.00001956   -0.00006723    0.01991926
     atom   33 type  2   force =     0.00008815   -0.00089950   -0.00009760
     atom   34 type  2   force =     0.00014164   -0.00017054    0.00007126
     atom   35 type  2   force =     0.00009804    0.00077739   -0.00030958
     atom   36 type  3   force =     0.00028911    0.00053765    0.00070686
     atom   37 type  3   force =     0.00044089    0.00072075    0.00031549
     atom   38 type  3   force =     0.00008061    0.00000483   -0.00023338
     atom   39 type  3   force =     0.00038560   -0.00066674   -0.00041113
     atom   40 type  3   force =    -0.00036487   -0.00051133    0.00022257
     atom   41 type  4   force =    -0.00032763    0.00009621   -0.00008022
     atom   42 type  4   force =     0.00004932    0.00008290    0.00007596
     atom   43 type  4   force =     0.00005737    0.00054292    0.00012662
     atom   44 type  4   force =    -0.00050486    0.00041437    0.00005705
     atom   45 type  4   force =    -0.00015340   -0.00038214   -0.00007112
     atom   46 type  4   force =    -0.00026823   -0.00027427   -0.00030701
     atom   47 type  4   force =    -0.00000587    0.00038258   -0.00026609
     atom   48 type  4   force =     0.00004756   -0.00006673    0.00034103

     Total force =     0.111874     Total SCF correction =     0.001743
 !ASE

     Writing output data file calc.save
 
     init_run     :     97.69s CPU    110.64s WALL (       1 calls)
     electrons    : 174293.89s CPU 176035.08s WALL (      31 calls)
     update_pot   :    166.84s CPU    168.95s WALL (      30 calls)
     forces       :   1846.65s CPU   1848.71s WALL (      31 calls)

     Called by init_run:
     wfcinit      :     74.14s CPU     86.80s WALL (       1 calls)
     potinit      :      2.38s CPU      2.48s WALL (       1 calls)

     Called by electrons:
     c_bands      : 119569.70s CPU 120778.32s WALL (     837 calls)
     sum_band     :  30049.66s CPU  30083.68s WALL (     837 calls)
     v_of_rho     :    324.75s CPU    360.20s WALL (     868 calls)
     newd         :  16045.60s CPU  16056.84s WALL (     868 calls)
     mix_rho      :   8845.77s CPU   9293.88s WALL (     837 calls)

     Called by c_bands:
     init_us_2    :    533.31s CPU    535.64s WALL (   17060 calls)
     cegterg      : 116345.61s CPU 117456.63s WALL (    8370 calls)

     Called by *egterg:
     h_psi        :  83635.35s CPU  83694.09s WALL (   37919 calls)
     s_psi        :   6336.93s CPU   6334.74s WALL (   37919 calls)
     g_psi        :    125.34s CPU    125.35s WALL (   29539 calls)
     cdiaghg      :   8665.59s CPU   8662.25s WALL (   37609 calls)

     Called by h_psi:
     add_vuspsi   :   6325.64s CPU   6323.48s WALL (   37919 calls)

     General routines
     calbec       :   8937.12s CPU   8954.58s WALL (   46599 calls)
     fft          :    444.47s CPU    482.21s WALL (   14135 calls)
     ffts         :   5118.62s CPU   5564.12s WALL (  713827 calls)
     fftw         :  74574.04s CPU  74564.83s WALL (13113634 calls)
     interpolate  :     64.81s CPU     68.53s WALL (    1705 calls)
     davcio       :      0.00s CPU      3.00s WALL (      10 calls)
 
     Parallel routines
     fft_scatter  :  25729.45s CPU  26198.35s WALL (13841596 calls)
 
     PWSCF        :     2d    1h 9m CPU        2d    1h39m WALL

 
   This run was terminated on:  19:48:48   8Apr2019            

=------------------------------------------------------------------------------=
   JOB DONE.
=------------------------------------------------------------------------------=
