  python dir          : /gpfs/pace1/project/chbe-medford/medford-share/gits/frozen/ben_espresso_8_24_2017/espresso
  espresso dir        : /nv/hp22/amedford6/medford-shared/builds/espresso/5.1.r11289-pybeef/intel-16.0+mvapich2-2.2+mkl-11.3/espresso-5.1.r11289-pybeef/bin
  pseudo dir          : /gpfs/pace1/project/chbe-medford/medford-share/data/pseudos/SSSP_eff_PBE
  ase-espresso py git : GITVERSION



     Program PWSCF v.5.1rc2 starts on  9Feb2019 at 22: 8: 4 

     This program is part of the open-source Quantum ESPRESSO suite
     for quantum simulation of materials; please cite
         "P. Giannozzi et al., J. Phys.:Condens. Matter 21 395502 (2009);
          URL http://www.quantum-espresso.org", 
     in publications or presentations arising from this work. More details at
     http://www.quantum-espresso.org/quote

     Parallel version (MPI), running on    12 processors
     R & G space division:  proc/nbgrp/npool/nimage =      12
     Reading input from pw.inp
     Message from routine read_cards :
     DEPRECATED: no units specified in CELL_PARAMETERS card

     Current dimensions of program PWSCF are:
     Max number of different atomic species (ntypx) = 10
     Max number of k-points (npk) =  40000
     Max angular momentum in pseudopotentials (lmaxx) =  3

     IMPORTANT: XC functional enforced from input :
     Exchange-correlation      = PBE ( 1  4  3  4 0)
     Any further DFT definition will be discarded
     Please, verify this is what you really want


     Subspace diagonalization in iterative solution of the eigenvalue problem:
     a serial algorithm will be used

 
     Parallelization info
     --------------------
     sticks:   dense  smooth     PW     G-vecs:    dense   smooth      PW
     Min         902     442    116               196882    67284    9094
     Max         903     443    117               196889    67324    9105
     Sum       10831    5305   1393              2362617   807589  109161
 


     bravais-lattice index     =            0
     lattice parameter (alat)  =       1.8897  a.u.
     unit-cell volume          =   23261.3228 (a.u.)^3
     number of atoms/cell      =           48
     number of atomic types    =            4
     number of electrons       =       654.00
     number of Kohn-Sham states=          337
     kinetic-energy cutoff     =      40.4243  Ry
     charge density cutoff     =     330.7439  Ry
     convergence threshold     =      7.3E-07
     mixing beta               =       0.2000
     number of iterations used =            8  local-TF  mixing
     Exchange-correlation      = PBE ( 1  4  3  4 0)
     nstep                     =           50


     celldm(1)=   1.889726  celldm(2)=   0.000000  celldm(3)=   0.000000
     celldm(4)=   0.000000  celldm(5)=   0.000000  celldm(6)=   0.000000

     crystal axes: (cart. coord. in units of alat)
               a(1) = (  11.534892   0.000000   0.000000 )  
               a(2) = (  -5.767446   9.989509   0.000000 )  
               a(3) = (   0.000000   0.000000  29.914390 )  

     reciprocal axes: (cart. coord. in units 2 pi/alat)
               b(1) = (  0.086693  0.050053  0.000000 )  
               b(2) = (  0.000000  0.100105  0.000000 )  
               b(3) = (  0.000000  0.000000  0.033429 )  


     PseudoPot. # 1 for Au read from file:
     /gpfs/pace1/project/chbe-medford/medford-share/data/pseudos/SSSP_eff_PBE/Au.UPF
     MD5 check sum: 1009843a674e36925f098327e430af60
     Pseudo is Norm-conserving, Zval = 19.0
     Generated using ONCVPSP code by D. R. Hamann
     Using radial grid of  602 points,  8 beta functions with: 
                l(1) =   0
                l(2) =   0
                l(3) =   1
                l(4) =   1
                l(5) =   2
                l(6) =   2
                l(7) =   3
                l(8) =   3

     PseudoPot. # 2 for O  read from file:
     /gpfs/pace1/project/chbe-medford/medford-share/data/pseudos/SSSP_eff_PBE/O.UPF
     MD5 check sum: 734c27235a0248c51dbae37a1fbe46ec
     Pseudo is Ultrasoft + core correction, Zval =  6.0
     Generated by new atomic code, or converted to UPF format
     Using radial grid of  737 points,  5 beta functions with: 
                l(1) =   0
                l(2) =   0
                l(3) =   1
                l(4) =   1
                l(5) =   2
     Q(r) pseudized with  8 coefficients,  rinner =    0.900   0.900   0.900
                                                       0.900   0.900

     PseudoPot. # 3 for C  read from file:
     /gpfs/pace1/project/chbe-medford/medford-share/data/pseudos/SSSP_eff_PBE/C.UPF
     MD5 check sum: d1aef80898a10debaa0f26306b886e00
     Pseudo is Ultrasoft + core correction, Zval =  4.0
     Generated by new atomic code, or converted to UPF format
     Using radial grid of  721 points,  4 beta functions with: 
                l(1) =   0
                l(2) =   0
                l(3) =   1
                l(4) =   1
     Q(r) pseudized with  8 coefficients,  rinner =    1.100   1.100   1.100


     PseudoPot. # 4 for  H read from file:
     /gpfs/pace1/project/chbe-medford/medford-share/data/pseudos/SSSP_eff_PBE/H.UPF
     MD5 check sum: 36633979392af7100e6f6632747262d3
     Pseudo is Ultrasoft, Zval =  1.0
     Generated using "atomic" code by A. Dal Corso  v.5.0.99 svn rev. 10869
     Using radial grid of  929 points,  2 beta functions with: 
                l(1) =   0
                l(2) =   0
     Q(r) pseudized with 0 coefficients 


     atomic species   valence    mass     pseudopotential
        Au1           19.00   196.96650     Au( 1.00)
        O1             6.00    15.99940     O ( 1.00)
        C1             4.00    12.01100     C ( 1.00)
        H1             1.00     1.00794      H( 1.00)

     No symmetry found



   Cartesian axes

     site n.     atom                  positions (alat units)
         1           Au1 tau(   1) = (   0.0000000   0.0000000  10.0000000  )
         2           Au1 tau(   2) = (   1.4418614   0.8324591  12.3545499  )
         3           Au1 tau(   3) = (  -1.4418614   2.4973773  10.0000000  )
         4           Au1 tau(   4) = (   0.0000000   3.3298364  12.3545499  )
         5           Au1 tau(   5) = (  -2.8837229   4.9947545  10.0000000  )
         6           Au1 tau(   6) = (  -1.4418614   5.8272136  12.3545499  )
         7           Au1 tau(   7) = (  -4.3255843   7.4921318  10.0000000  )
         8           Au1 tau(   8) = (  -2.8837229   8.3245909  12.3545499  )
         9           Au1 tau(   9) = (   2.8837229   0.0000000  10.0000000  )
        10           Au1 tau(  10) = (   4.3255843   0.8324591  12.3545499  )
        11           Au1 tau(  11) = (   1.4418614   2.4973773  10.0000000  )
        12           Au1 tau(  12) = (   2.8837229   3.3298364  12.3545499  )
        13           Au1 tau(  13) = (   0.0000000   4.9947545  10.0000000  )
        14           Au1 tau(  14) = (   1.4418614   5.8272136  12.3545499  )
        15           Au1 tau(  15) = (  -1.4418614   7.4921318  10.0000000  )
        16           Au1 tau(  16) = (   0.0000000   8.3245909  12.3545499  )
        17           Au1 tau(  17) = (   5.7674458   0.0000000  10.0000000  )
        18           Au1 tau(  18) = (   7.2093072   0.8324591  12.3545499  )
        19           Au1 tau(  19) = (   4.3255843   2.4973773  10.0000000  )
        20           Au1 tau(  20) = (   5.7674458   3.3298364  12.3545499  )
        21           Au1 tau(  21) = (   2.8837229   4.9947545  10.0000000  )
        22           Au1 tau(  22) = (   4.3255843   5.8272136  12.3545499  )
        23           Au1 tau(  23) = (   1.4418614   7.4921318  10.0000000  )
        24           Au1 tau(  24) = (   2.8837229   8.3245909  12.3545499  )
        25           Au1 tau(  25) = (   8.6511686   0.0000000  10.0000000  )
        26           Au1 tau(  26) = (  10.0930301   0.8324591  12.3545499  )
        27           Au1 tau(  27) = (   7.2093072   2.4973773  10.0000000  )
        28           Au1 tau(  28) = (   8.6511686   3.3298364  12.3545499  )
        29           Au1 tau(  29) = (   5.7674458   4.9947545  10.0000000  )
        30           Au1 tau(  30) = (   7.2093072   5.8272136  12.3545499  )
        31           Au1 tau(  31) = (   4.3255843   7.4921318  10.0000000  )
        32           Au1 tau(  32) = (   5.7674458   8.3245909  12.3545499  )
        33           O1  tau(  33) = (   5.8182000   7.9058056  17.0062221  )
        34           O1  tau(  34) = (   5.7670000   3.3300000  14.8545499  )
        35           O1  tau(  35) = (   5.8179000   2.8848933  17.0810973  )
        36           C1  tau(  36) = (   5.8042000   5.6173101  17.7850125  )
        37           C1  tau(  37) = (   5.7993000   5.1962607  16.3190916  )
        38           C1  tau(  38) = (   5.7996000   7.1256773  17.9570439  )
        39           C1  tau(  39) = (   5.7661000   7.6313549  19.3759847  )
        40           C1  tau(  40) = (   5.7966000   3.6934018  16.1635194  )
        41           H1  tau(  41) = (   6.6945000   5.2216822  18.2870602  )
        42           H1  tau(  42) = (   4.9197000   5.2152707  18.2923652  )
        43           H1  tau(  43) = (   6.6881000   5.5910101  15.8137655  )
        44           H1  tau(  44) = (   4.9081000   5.5939197  15.8205260  )
        45           H1  tau(  45) = (   4.8534000   7.2846467  19.8669009  )
        46           H1  tau(  46) = (   6.6455000   7.2696997  19.9143897  )
        47           H1  tau(  47) = (   5.7756000   8.7248201  19.3784473  )
        48           H1  tau(  48) = (   5.7651000   2.3551262  14.7460809  )

     number of k points=     4  Fermi-Dirac smearing, width (Ry)=  0.0073
                       cart. coord. in units 2pi/alat
        k(    1) = (   0.0000000   0.0000000   0.0000000), wk =   0.5000000
        k(    2) = (   0.0000000  -0.0500525   0.0000000), wk =   0.5000000
        k(    3) = (   0.0433467  -0.0250263   0.0000000), wk =   0.5000000
        k(    4) = (  -0.0433467  -0.0250263   0.0000000), wk =   0.5000000

     Dense  grid:  2362617 G-vectors     FFT dimensions: ( 128, 128, 360)

     Smooth grid:   807589 G-vectors     FFT dimensions: (  90,  90, 240)

     Largest allocated arrays     est. size (Mb)     dimensions
        Kohn-Sham Wavefunctions        43.58 Mb     (    8475,  337)
        NL pseudopotentials           144.71 Mb     (    8475, 1119)
        Each V/rho on FFT grid          7.50 Mb     (  491520)
        Each G-vector array             1.50 Mb     (  196882)
        G-vector shells                 0.46 Mb     (   60517)
     Largest temporary arrays     est. size (Mb)     dimensions
        Auxiliary wavefunctions       174.32 Mb     (    8475, 1348)
        Each subspace H/S matrix       27.73 Mb     (    1348, 1348)
        Each <psi_i|beta_j> matrix      5.75 Mb     (    1119,  337)
        Arrays for rho mixing          60.00 Mb     (  491520,    8)

     Initial potential from superposition of free atoms
     Check: negative starting charge=   -0.002288

     starting charge  653.28105, renormalised to  654.00000

     negative rho (up, down):  2.291E-03 0.000E+00
     Starting wfc are   40 randomized atomic wfcs +  297 random wfc

     total cpu time spent up to now is       62.8 secs

     per-process dynamical memory:   517.3 Mb

     Self-consistent Calculation

     iteration #  1     ecut=    40.42 Ry     beta=0.20
     Davidson diagonalization with overlap
     ethr =  1.00E-02,  avg # of iterations = 11.5

     Threshold (ethr) on eigenvalues was too large:
     Diagonalizing with lowered threshold

     Davidson diagonalization with overlap
     ethr =  3.21E-04,  avg # of iterations =  2.0

     negative rho (up, down):  5.215E-05 0.000E+00

     total cpu time spent up to now is      797.4 secs

     total energy              =   -8954.72967275 Ry
     Harris-Foulkes estimate   =   -8954.96535931 Ry
     estimated scf accuracy    <       2.10775164 Ry

     iteration #  2     ecut=    40.42 Ry     beta=0.20
     Davidson diagonalization with overlap
     ethr =  3.22E-04,  avg # of iterations =  1.2

     negative rho (up, down):  2.219E-05 0.000E+00

     total cpu time spent up to now is      946.2 secs

     total energy              =   -8954.14796558 Ry
     Harris-Foulkes estimate   =   -8954.74703321 Ry
     estimated scf accuracy    <       1.42156183 Ry

     iteration #  3     ecut=    40.42 Ry     beta=0.20
     Davidson diagonalization with overlap
     ethr =  2.17E-04,  avg # of iterations =  4.8

     negative rho (up, down):  4.391E-06 0.000E+00

     total cpu time spent up to now is     1113.5 secs

     total energy              =   -8954.30624295 Ry
     Harris-Foulkes estimate   =   -8954.35082621 Ry
     estimated scf accuracy    <       0.22950182 Ry

     iteration #  4     ecut=    40.42 Ry     beta=0.20
     Davidson diagonalization with overlap
     ethr =  3.51E-05,  avg # of iterations =  3.0

     negative rho (up, down):  4.242E-06 0.000E+00

     total cpu time spent up to now is     1272.0 secs

     total energy              =   -8954.28064488 Ry
     Harris-Foulkes estimate   =   -8954.32157917 Ry
     estimated scf accuracy    <       0.11786100 Ry

     iteration #  5     ecut=    40.42 Ry     beta=0.20
     Davidson diagonalization with overlap
     ethr =  1.80E-05,  avg # of iterations =  2.0

     negative rho (up, down):  1.004E-06 0.000E+00

     total cpu time spent up to now is     1424.2 secs

     total energy              =   -8954.27857405 Ry
     Harris-Foulkes estimate   =   -8954.28918988 Ry
     estimated scf accuracy    <       0.04572910 Ry

     iteration #  6     ecut=    40.42 Ry     beta=0.20
     Davidson diagonalization with overlap
     ethr =  6.99E-06,  avg # of iterations =  3.0

     negative rho (up, down):  5.565E-07 0.000E+00

     total cpu time spent up to now is     1581.0 secs

     total energy              =   -8954.27351539 Ry
     Harris-Foulkes estimate   =   -8954.27989602 Ry
     estimated scf accuracy    <       0.02337986 Ry

     iteration #  7     ecut=    40.42 Ry     beta=0.20
     Davidson diagonalization with overlap
     ethr =  3.57E-06,  avg # of iterations = 10.8

     negative rho (up, down):  9.940E-03 0.000E+00

     total cpu time spent up to now is     1761.2 secs

     total energy              =   -8954.27166540 Ry
     Harris-Foulkes estimate   =   -8954.27440654 Ry
     estimated scf accuracy    <       0.01558336 Ry

     iteration #  8     ecut=    40.42 Ry     beta=0.20
     Davidson diagonalization with overlap
     ethr =  2.38E-06,  avg # of iterations =  3.0

     negative rho (up, down):  4.166E-02 0.000E+00

     total cpu time spent up to now is     1913.6 secs

     total energy              =   -8954.27248902 Ry
     Harris-Foulkes estimate   =   -8954.27213689 Ry
     estimated scf accuracy    <       0.00835386 Ry

     iteration #  9     ecut=    40.42 Ry     beta=0.20
     Davidson diagonalization with overlap
     ethr =  1.28E-06,  avg # of iterations =  3.0

     negative rho (up, down):  4.701E-02 0.000E+00

     total cpu time spent up to now is     2069.8 secs

     total energy              =   -8954.27197383 Ry
     Harris-Foulkes estimate   =   -8954.27314912 Ry
     estimated scf accuracy    <       0.00648041 Ry

     iteration # 10     ecut=    40.42 Ry     beta=0.20
     Davidson diagonalization with overlap
     ethr =  9.91E-07,  avg # of iterations =  3.0

     negative rho (up, down):  6.576E-02 0.000E+00

     total cpu time spent up to now is     2225.1 secs

     total energy              =   -8954.27240408 Ry
     Harris-Foulkes estimate   =   -8954.27236493 Ry
     estimated scf accuracy    <       0.00289943 Ry

     iteration # 11     ecut=    40.42 Ry     beta=0.20
     Davidson diagonalization with overlap
     ethr =  4.43E-07,  avg # of iterations =  3.0

     negative rho (up, down):  3.945E-02 0.000E+00

     total cpu time spent up to now is     2382.7 secs

     total energy              =   -8954.27148769 Ry
     Harris-Foulkes estimate   =   -8954.27249135 Ry
     estimated scf accuracy    <       0.00219033 Ry

     iteration # 12     ecut=    40.42 Ry     beta=0.20
     Davidson diagonalization with overlap
     ethr =  3.35E-07,  avg # of iterations =  3.0

     negative rho (up, down):  3.967E-02 0.000E+00

     total cpu time spent up to now is     2552.9 secs

     total energy              =   -8954.27168162 Ry
     Harris-Foulkes estimate   =   -8954.27175591 Ry
     estimated scf accuracy    <       0.00088141 Ry

     iteration # 13     ecut=    40.42 Ry     beta=0.20
     Davidson diagonalization with overlap
     ethr =  1.35E-07,  avg # of iterations =  3.0

     negative rho (up, down):  2.044E-02 0.000E+00

     total cpu time spent up to now is     2707.0 secs

     total energy              =   -8954.27127906 Ry
     Harris-Foulkes estimate   =   -8954.27170174 Ry
     estimated scf accuracy    <       0.00058972 Ry

     iteration # 14     ecut=    40.42 Ry     beta=0.20
     Davidson diagonalization with overlap
     ethr =  9.02E-08,  avg # of iterations =  3.0

     negative rho (up, down):  8.067E-03 0.000E+00

     total cpu time spent up to now is     2868.6 secs

     total energy              =   -8954.27112797 Ry
     Harris-Foulkes estimate   =   -8954.27130251 Ry
     estimated scf accuracy    <       0.00026900 Ry

     iteration # 15     ecut=    40.42 Ry     beta=0.20
     Davidson diagonalization with overlap
     ethr =  4.11E-08,  avg # of iterations =  3.0

     negative rho (up, down):  5.596E-03 0.000E+00

     total cpu time spent up to now is     3030.1 secs

     total energy              =   -8954.27113967 Ry
     Harris-Foulkes estimate   =   -8954.27114332 Ry
     estimated scf accuracy    <       0.00011131 Ry

     iteration # 16     ecut=    40.42 Ry     beta=0.20
     Davidson diagonalization with overlap
     ethr =  1.70E-08,  avg # of iterations =  3.0

     negative rho (up, down):  4.157E-03 0.000E+00

     total cpu time spent up to now is     3187.7 secs

     total energy              =   -8954.27116880 Ry
     Harris-Foulkes estimate   =   -8954.27114431 Ry
     estimated scf accuracy    <       0.00005493 Ry

     iteration # 17     ecut=    40.42 Ry     beta=0.20
     Davidson diagonalization with overlap
     ethr =  8.40E-09,  avg # of iterations =  2.5

     negative rho (up, down):  2.154E-03 0.000E+00

     total cpu time spent up to now is     3345.1 secs

     total energy              =   -8954.27117877 Ry
     Harris-Foulkes estimate   =   -8954.27117016 Ry
     estimated scf accuracy    <       0.00003164 Ry

     iteration # 18     ecut=    40.42 Ry     beta=0.20
     Davidson diagonalization with overlap
     ethr =  4.84E-09,  avg # of iterations =  3.0

     negative rho (up, down):  1.783E-03 0.000E+00

     total cpu time spent up to now is     3502.1 secs

     total energy              =   -8954.27120949 Ry
     Harris-Foulkes estimate   =   -8954.27117955 Ry
     estimated scf accuracy    <       0.00002086 Ry

     iteration # 19     ecut=    40.42 Ry     beta=0.20
     Davidson diagonalization with overlap
     ethr =  3.19E-09,  avg # of iterations =  3.8

     negative rho (up, down):  2.114E-03 0.000E+00

     total cpu time spent up to now is     3673.6 secs

     total energy              =   -8954.27122675 Ry
     Harris-Foulkes estimate   =   -8954.27121017 Ry
     estimated scf accuracy    <       0.00001246 Ry

     iteration # 20     ecut=    40.42 Ry     beta=0.20
     Davidson diagonalization with overlap
     ethr =  1.90E-09,  avg # of iterations =  2.0

     negative rho (up, down):  2.118E-03 0.000E+00

     total cpu time spent up to now is     3831.6 secs

     total energy              =   -8954.27123681 Ry
     Harris-Foulkes estimate   =   -8954.27122700 Ry
     estimated scf accuracy    <       0.00000856 Ry

     iteration # 21     ecut=    40.42 Ry     beta=0.20
     Davidson diagonalization with overlap
     ethr =  1.31E-09,  avg # of iterations =  3.0

     negative rho (up, down):  2.323E-03 0.000E+00

     total cpu time spent up to now is     3995.4 secs

     total energy              =   -8954.27123842 Ry
     Harris-Foulkes estimate   =   -8954.27123713 Ry
     estimated scf accuracy    <       0.00000518 Ry

     iteration # 22     ecut=    40.42 Ry     beta=0.20
     Davidson diagonalization with overlap
     ethr =  7.92E-10,  avg # of iterations =  3.0

     negative rho (up, down):  2.334E-03 0.000E+00

     total cpu time spent up to now is     4159.0 secs

     total energy              =   -8954.27123821 Ry
     Harris-Foulkes estimate   =   -8954.27123865 Ry
     estimated scf accuracy    <       0.00000360 Ry

     iteration # 23     ecut=    40.42 Ry     beta=0.20
     Davidson diagonalization with overlap
     ethr =  5.50E-10,  avg # of iterations =  3.0

     negative rho (up, down):  2.520E-03 0.000E+00

     total cpu time spent up to now is     4317.5 secs

     total energy              =   -8954.27123781 Ry
     Harris-Foulkes estimate   =   -8954.27123829 Ry
     estimated scf accuracy    <       0.00000280 Ry

     iteration # 24     ecut=    40.42 Ry     beta=0.20
     Davidson diagonalization with overlap
     ethr =  4.28E-10,  avg # of iterations =  2.5

     negative rho (up, down):  2.612E-03 0.000E+00

     total cpu time spent up to now is     4476.4 secs

     total energy              =   -8954.27123707 Ry
     Harris-Foulkes estimate   =   -8954.27123785 Ry
     estimated scf accuracy    <       0.00000222 Ry

     iteration # 25     ecut=    40.42 Ry     beta=0.20
     Davidson diagonalization with overlap
     ethr =  3.40E-10,  avg # of iterations =  3.0

     negative rho (up, down):  2.707E-03 0.000E+00

     total cpu time spent up to now is     4631.7 secs

     total energy              =   -8954.27123702 Ry
     Harris-Foulkes estimate   =   -8954.27123712 Ry
     estimated scf accuracy    <       0.00000179 Ry

     iteration # 26     ecut=    40.42 Ry     beta=0.20
     Davidson diagonalization with overlap
     ethr =  2.73E-10,  avg # of iterations =  1.0

     negative rho (up, down):  2.641E-03 0.000E+00

     total cpu time spent up to now is     4778.0 secs

     total energy              =   -8954.27123714 Ry
     Harris-Foulkes estimate   =   -8954.27123703 Ry
     estimated scf accuracy    <       0.00000155 Ry

     iteration # 27     ecut=    40.42 Ry     beta=0.20
     Davidson diagonalization with overlap
     ethr =  2.38E-10,  avg # of iterations =  3.0

     negative rho (up, down):  2.555E-03 0.000E+00

     total cpu time spent up to now is     4945.2 secs

     total energy              =   -8954.27123744 Ry
     Harris-Foulkes estimate   =   -8954.27123722 Ry
     estimated scf accuracy    <       0.00000082 Ry

     iteration # 28     ecut=    40.42 Ry     beta=0.20
     Davidson diagonalization with overlap
     ethr =  1.26E-10,  avg # of iterations =  3.5

     negative rho (up, down):  2.979E-03 0.000E+00

     total cpu time spent up to now is     5088.6 secs

     End of self-consistent calculation

          k = 0.0000 0.0000 0.0000 (100843 PWs)   bands (ev):

  -106.1806-106.1103-106.1081-106.1037-106.0932-106.0913-106.0910-106.0879
  -106.0867-106.0859-106.0843-106.0841-106.0835-106.0827-106.0826-106.0815
  -106.0811-106.0808-106.0803-106.0800-106.0795-106.0785-106.0784-106.0779
  -106.0766-106.0764-106.0762-106.0755-106.0748-106.0745-106.0740-106.0731
   -57.5677 -57.5627 -57.5395 -57.5284 -57.5269 -57.5247 -57.5143 -57.5138
   -57.5066 -57.5035 -57.5031 -57.4997 -57.4987 -57.4979 -57.4954 -57.4949
   -57.4945 -57.4933 -57.4709 -57.4671 -57.4561 -57.4559 -57.4543 -57.4509
   -57.4500 -57.4459 -57.4439 -57.4431 -57.4419 -57.4416 -57.4404 -57.4402
   -57.4388 -57.4375 -57.4369 -57.4339 -57.4276 -57.4252 -57.4246 -57.4235
   -57.4228 -57.4207 -57.4152 -57.4139 -57.4136 -57.3971 -57.3955 -57.3930
   -57.3928 -57.3902 -57.3895 -57.3885 -57.3881 -57.3870 -57.3865 -57.3735
   -57.3721 -57.3696 -57.3666 -57.3665 -57.3658 -57.3655 -57.3652 -57.3491
   -57.3488 -57.3301 -57.3134 -57.3114 -57.3038 -57.3031 -57.3024 -57.2962
   -57.2812 -57.2771 -57.2742 -57.2736 -57.2702 -57.2686 -57.2675 -57.2670
   -57.2571 -57.2464 -57.2411 -57.2383 -57.2361 -57.2330 -57.2323 -57.2311
   -57.2302 -57.2291 -57.2238 -57.2220 -57.2217 -57.2195 -57.2188 -57.2164
   -23.8822 -21.7792 -21.5180 -16.0211 -14.6177 -13.1798 -11.2165  -9.1755
    -8.9463  -8.2988  -8.2632  -8.0576  -7.7019  -7.6252  -7.6244  -7.6205
    -7.6195  -7.6182  -7.5981  -7.1967  -7.0366  -7.0361  -7.0339  -7.0019
    -6.9983  -6.9952  -6.9100  -6.6461  -6.5811  -6.5714  -6.5681  -6.5676
    -6.5653  -6.5635  -6.3975  -6.3843  -6.3773  -6.3412  -6.3366  -6.3319
    -6.3319  -6.3312  -6.3293  -6.2551  -5.9647  -5.9424  -5.9412  -5.9353
    -5.9335  -5.9302  -5.9290  -5.9248  -5.9242  -5.9225  -5.9212  -5.9210
    -5.7957  -5.6913  -5.6904  -5.6891  -5.6880  -5.6863  -5.6466  -5.2787
    -5.2741  -5.2658  -5.1559  -5.1553  -5.1524  -5.1514  -5.1503  -5.1477
    -5.0970  -5.0579  -5.0400  -5.0171  -4.9854  -4.9797  -4.9783  -4.9770
    -4.9732  -4.9722  -4.9652  -4.9420  -4.9022  -4.8974  -4.8890  -4.8887
    -4.8879  -4.8760  -4.8476  -4.8474  -4.7409  -4.7399  -4.7377  -4.7321
    -4.7318  -4.7310  -4.6926  -4.6847  -4.6795  -4.6756  -4.6744  -4.6600
    -4.5070  -4.4857  -4.4775  -4.4735  -4.4715  -4.4704  -4.4605  -4.4588
    -4.4575  -4.4529  -4.4519  -4.4513  -4.4475  -4.3836  -4.3821  -4.3801
    -4.2213  -4.2206  -4.2123  -4.2092  -4.2080  -4.2078  -4.0130  -3.8449
    -3.8448  -3.8393  -3.8392  -3.8368  -3.8347  -3.6029  -3.5776  -3.5765
    -3.5738  -3.5604  -3.5520  -3.5367  -3.5224  -3.5098  -3.4921  -3.4898
    -3.4681  -3.4675  -3.4634  -3.4631  -3.4618  -3.4589  -3.3944  -3.3846
    -3.3808  -3.3808  -3.3790  -3.3781  -3.2010  -3.1926  -3.1888  -3.1878
    -3.1834  -3.1824  -3.0885  -3.0829  -3.0811  -3.0177  -2.9234  -2.9217
    -2.9203  -2.7726  -2.7661  -2.7542  -2.7515  -2.7510  -2.7494  -2.7479
    -2.7477  -2.6677  -2.5608  -2.5607  -2.5589  -2.5547  -2.5547  -2.4353
    -2.3524  -2.3515  -2.3496  -2.2354  -2.2352  -2.2336  -1.6402  -1.6260
    -1.6175  -1.6114  -1.6066  -1.5841  -1.4121  -0.3384  -0.3343  -0.3340
    -0.3305  -0.3285  -0.3244  -0.0962  -0.0579  -0.0544  -0.0421   0.8341
     0.8362

          k = 0.0000-0.0501 0.0000 (100960 PWs)   bands (ev):

  -106.1806-106.1103-106.1081-106.1037-106.0932-106.0914-106.0910-106.0879
  -106.0870-106.0856-106.0844-106.0840-106.0838-106.0824-106.0823-106.0816
  -106.0813-106.0805-106.0802-106.0799-106.0798-106.0790-106.0782-106.0777
  -106.0768-106.0764-106.0759-106.0756-106.0748-106.0745-106.0741-106.0731
   -57.5637 -57.5603 -57.5280 -57.5237 -57.5223 -57.5154 -57.5129 -57.5118
   -57.5083 -57.5078 -57.5072 -57.5066 -57.5044 -57.4970 -57.4934 -57.4924
   -57.4900 -57.4866 -57.4846 -57.4831 -57.4777 -57.4761 -57.4734 -57.4731
   -57.4687 -57.4633 -57.4514 -57.4451 -57.4413 -57.4412 -57.4309 -57.4280
   -57.4251 -57.4246 -57.4240 -57.4217 -57.4160 -57.4148 -57.4101 -57.4094
   -57.4079 -57.4067 -57.4056 -57.4049 -57.4008 -57.4005 -57.3989 -57.3931
   -57.3907 -57.3903 -57.3897 -57.3875 -57.3872 -57.3840 -57.3839 -57.3833
   -57.3806 -57.3784 -57.3763 -57.3733 -57.3717 -57.3681 -57.3667 -57.3565
   -57.3531 -57.3258 -57.3187 -57.3134 -57.3078 -57.2984 -57.2950 -57.2880
   -57.2871 -57.2831 -57.2770 -57.2768 -57.2705 -57.2688 -57.2675 -57.2603
   -57.2532 -57.2456 -57.2439 -57.2420 -57.2361 -57.2339 -57.2322 -57.2302
   -57.2273 -57.2261 -57.2255 -57.2232 -57.2231 -57.2193 -57.2183 -57.2163
   -23.8822 -21.7792 -21.5180 -16.0211 -14.6177 -13.1798 -11.2164  -8.9473
    -8.7169  -8.6984  -8.2885  -8.2635  -8.0518  -7.8744  -7.8500  -7.2659
    -7.2548  -7.1965  -7.1007  -7.0950  -6.9681  -6.9346  -6.9334  -6.9316
    -6.8865  -6.7836  -6.7782  -6.7462  -6.7422  -6.7414  -6.7378  -6.6399
    -6.6011  -6.5982  -6.5943  -6.5870  -6.5352  -6.5285  -6.3051  -6.2697
    -6.2672  -6.2612  -6.2607  -6.2395  -6.2299  -6.2290  -6.2059  -6.1925
    -6.1840  -6.1585  -6.1552  -6.0183  -6.0015  -5.9438  -5.9224  -5.9208
    -5.9198  -5.9112  -5.9058  -5.7593  -5.5391  -5.5293  -5.3869  -5.3798
    -5.2252  -5.2180  -5.1844  -5.1652  -5.1592  -5.1577  -5.1525  -5.1408
    -5.1196  -5.1163  -5.0758  -5.0652  -5.0609  -5.0591  -5.0552  -5.0539
    -5.0443  -5.0167  -5.0086  -4.9818  -4.9548  -4.9323  -4.9272  -4.9064
    -4.9008  -4.8931  -4.8893  -4.8807  -4.8678  -4.6816  -4.6736  -4.6712
    -4.6650  -4.6595  -4.6547  -4.6127  -4.6095  -4.6012  -4.5978  -4.5811
    -4.5741  -4.5247  -4.5002  -4.4840  -4.3826  -4.3768  -4.3187  -4.3024
    -4.2918  -4.2898  -4.2415  -4.2311  -4.2268  -4.2262  -4.1980  -4.1939
    -4.0713  -4.0257  -4.0149  -3.9413  -3.9299  -3.8681  -3.8672  -3.8637
    -3.8578  -3.8503  -3.8315  -3.6942  -3.6825  -3.5862  -3.5786  -3.5759
    -3.5681  -3.5666  -3.5501  -3.4527  -3.4461  -3.4432  -3.4284  -3.4283
    -3.4271  -3.4085  -3.3985  -3.2927  -3.2905  -3.2510  -3.2370  -3.1628
    -3.1556  -3.1495  -3.1468  -3.0992  -3.0956  -3.0907  -3.0901  -3.0303
    -3.0252  -3.0079  -3.0019  -2.9998  -2.9957  -2.9776  -2.9699  -2.8810
    -2.8687  -2.8376  -2.8185  -2.8040  -2.8033  -2.7977  -2.7965  -2.7505
    -2.7428  -2.7404  -2.7379  -2.6864  -2.6804  -2.6583  -2.6564  -2.6530
    -2.5463  -2.5423  -2.5381  -2.5290  -2.4464  -2.4103  -2.4100  -2.4065
    -2.4052  -2.2935  -1.8267  -1.7553  -1.6068  -0.6305  -0.6247  -0.6103
    -0.5306  -0.3436  -0.3368  -0.3328  -0.3316  -0.1841  -0.1360   0.8550
     0.9043

          k = 0.0433-0.0250 0.0000 (100960 PWs)   bands (ev):

  -106.1806-106.1103-106.1082-106.1037-106.0932-106.0915-106.0908-106.0882
  -106.0866-106.0858-106.0843-106.0840-106.0832-106.0829-106.0824-106.0816
  -106.0811-106.0809-106.0801-106.0800-106.0797-106.0786-106.0783-106.0778
  -106.0767-106.0765-106.0759-106.0755-106.0749-106.0744-106.0741-106.0731
   -57.5654 -57.5590 -57.5274 -57.5227 -57.5213 -57.5150 -57.5140 -57.5116
   -57.5087 -57.5069 -57.5069 -57.5063 -57.5047 -57.4967 -57.4955 -57.4925
   -57.4917 -57.4866 -57.4851 -57.4837 -57.4770 -57.4767 -57.4740 -57.4730
   -57.4684 -57.4636 -57.4497 -57.4462 -57.4418 -57.4364 -57.4326 -57.4282
   -57.4257 -57.4240 -57.4237 -57.4209 -57.4164 -57.4149 -57.4105 -57.4097
   -57.4071 -57.4062 -57.4050 -57.4042 -57.4018 -57.4002 -57.3989 -57.3952
   -57.3920 -57.3910 -57.3888 -57.3880 -57.3874 -57.3844 -57.3837 -57.3827
   -57.3801 -57.3783 -57.3765 -57.3732 -57.3711 -57.3686 -57.3665 -57.3569
   -57.3524 -57.3246 -57.3208 -57.3130 -57.3080 -57.2972 -57.2938 -57.2891
   -57.2857 -57.2847 -57.2802 -57.2746 -57.2730 -57.2682 -57.2643 -57.2594
   -57.2549 -57.2475 -57.2438 -57.2385 -57.2372 -57.2354 -57.2317 -57.2293
   -57.2278 -57.2263 -57.2256 -57.2243 -57.2210 -57.2202 -57.2182 -57.2163
   -23.8822 -21.7792 -21.5180 -16.0211 -14.6177 -13.1798 -11.2164  -8.9473
    -8.7168  -8.6974  -8.2902  -8.2627  -8.0564  -7.8734  -7.8456  -7.2670
    -7.2566  -7.1949  -7.1003  -7.0946  -6.9694  -6.9344  -6.9335  -6.9323
    -6.8852  -6.7846  -6.7754  -6.7469  -6.7430  -6.7424  -6.7392  -6.6455
    -6.6016  -6.5952  -6.5942  -6.5805  -6.5352  -6.5285  -6.3047  -6.2687
    -6.2674  -6.2622  -6.2607  -6.2399  -6.2286  -6.2282  -6.2257  -6.1845
    -6.1813  -6.1558  -6.1552  -6.0061  -6.0020  -5.9409  -5.9223  -5.9199
    -5.9191  -5.9126  -5.9064  -5.7725  -5.5383  -5.5310  -5.3865  -5.3773
    -5.2256  -5.2181  -5.1782  -5.1679  -5.1575  -5.1562  -5.1542  -5.1428
    -5.1223  -5.1137  -5.0849  -5.0617  -5.0599  -5.0581  -5.0536  -5.0499
    -5.0412  -5.0161  -4.9967  -4.9843  -4.9629  -4.9339  -4.9268  -4.9061
    -4.8985  -4.8921  -4.8902  -4.8853  -4.8765  -4.6816  -4.6723  -4.6689
    -4.6653  -4.6599  -4.6564  -4.6134  -4.6059  -4.6029  -4.5951  -4.5823
    -4.5730  -4.5153  -4.5023  -4.4855  -4.3937  -4.3818  -4.3164  -4.3015
    -4.3002  -4.2907  -4.2364  -4.2320  -4.2268  -4.2251  -4.1987  -4.1924
    -4.0868  -4.0140  -3.9946  -3.9412  -3.9344  -3.8744  -3.8655  -3.8638
    -3.8549  -3.8517  -3.8190  -3.6985  -3.6889  -3.5883  -3.5786  -3.5754
    -3.5685  -3.5652  -3.5595  -3.4593  -3.4486  -3.4384  -3.4281  -3.4264
    -3.4246  -3.4071  -3.4015  -3.2992  -3.2901  -3.2471  -3.2358  -3.1548
    -3.1503  -3.1495  -3.1478  -3.1016  -3.0954  -3.0920  -3.0888  -3.0326
    -3.0249  -3.0116  -3.0040  -2.9958  -2.9954  -2.9751  -2.9712  -2.8797
    -2.8704  -2.8372  -2.8205  -2.8041  -2.8017  -2.7982  -2.7962  -2.7529
    -2.7416  -2.7389  -2.7352  -2.6869  -2.6799  -2.6594  -2.6537  -2.6519
    -2.5478  -2.5408  -2.5382  -2.5306  -2.4478  -2.4101  -2.4094  -2.4066
    -2.4049  -2.2970  -1.8294  -1.7443  -1.6104  -0.6290  -0.6196  -0.6151
    -0.5330  -0.3435  -0.3398  -0.3320  -0.3311  -0.1800  -0.1405   0.8508
     0.8993

          k =-0.0433-0.0250 0.0000 (100960 PWs)   bands (ev):

  -106.1806-106.1103-106.1082-106.1037-106.0932-106.0915-106.0908-106.0882
  -106.0866-106.0858-106.0843-106.0840-106.0832-106.0829-106.0824-106.0816
  -106.0812-106.0810-106.0801-106.0799-106.0798-106.0787-106.0782-106.0778
  -106.0767-106.0764-106.0760-106.0755-106.0749-106.0744-106.0741-106.0731
   -57.5654 -57.5590 -57.5273 -57.5227 -57.5213 -57.5150 -57.5140 -57.5116
   -57.5088 -57.5069 -57.5069 -57.5063 -57.5047 -57.4967 -57.4955 -57.4925
   -57.4916 -57.4866 -57.4851 -57.4837 -57.4770 -57.4767 -57.4740 -57.4730
   -57.4684 -57.4636 -57.4497 -57.4463 -57.4418 -57.4364 -57.4326 -57.4282
   -57.4257 -57.4240 -57.4236 -57.4209 -57.4164 -57.4149 -57.4105 -57.4097
   -57.4071 -57.4062 -57.4050 -57.4041 -57.4018 -57.4002 -57.3988 -57.3952
   -57.3920 -57.3910 -57.3888 -57.3880 -57.3874 -57.3845 -57.3837 -57.3827
   -57.3801 -57.3783 -57.3765 -57.3732 -57.3711 -57.3686 -57.3665 -57.3569
   -57.3524 -57.3246 -57.3208 -57.3129 -57.3080 -57.2972 -57.2938 -57.2891
   -57.2857 -57.2848 -57.2802 -57.2745 -57.2730 -57.2682 -57.2644 -57.2594
   -57.2549 -57.2475 -57.2438 -57.2385 -57.2372 -57.2355 -57.2317 -57.2292
   -57.2279 -57.2263 -57.2256 -57.2243 -57.2210 -57.2202 -57.2182 -57.2163
   -23.8822 -21.7792 -21.5180 -16.0211 -14.6177 -13.1798 -11.2164  -8.9473
    -8.7169  -8.6974  -8.2905  -8.2625  -8.0565  -7.8734  -7.8455  -7.2669
    -7.2566  -7.1948  -7.1004  -7.0946  -6.9694  -6.9345  -6.9335  -6.9323
    -6.8852  -6.7846  -6.7754  -6.7469  -6.7430  -6.7424  -6.7392  -6.6456
    -6.6016  -6.5952  -6.5942  -6.5804  -6.5352  -6.5284  -6.3050  -6.2685
    -6.2674  -6.2619  -6.2606  -6.2399  -6.2294  -6.2282  -6.2269  -6.1846
    -6.1796  -6.1553  -6.1552  -6.0064  -6.0019  -5.9410  -5.9223  -5.9200
    -5.9191  -5.9125  -5.9064  -5.7725  -5.5383  -5.5309  -5.3865  -5.3773
    -5.2256  -5.2181  -5.1785  -5.1679  -5.1575  -5.1563  -5.1537  -5.1429
    -5.1226  -5.1137  -5.0850  -5.0623  -5.0599  -5.0586  -5.0533  -5.0499
    -5.0399  -5.0189  -4.9928  -4.9766  -4.9717  -4.9338  -4.9261  -4.9066
    -4.8992  -4.8927  -4.8898  -4.8846  -4.8764  -4.6816  -4.6723  -4.6692
    -4.6651  -4.6598  -4.6563  -4.6135  -4.6059  -4.6029  -4.5952  -4.5823
    -4.5730  -4.5153  -4.5021  -4.4854  -4.3934  -4.3818  -4.3166  -4.3015
    -4.3003  -4.2907  -4.2360  -4.2322  -4.2268  -4.2251  -4.1993  -4.1924
    -4.0867  -4.0149  -3.9943  -3.9411  -3.9342  -3.8742  -3.8655  -3.8639
    -3.8555  -3.8519  -3.8178  -3.6977  -3.6890  -3.5883  -3.5785  -3.5754
    -3.5684  -3.5653  -3.5587  -3.4593  -3.4486  -3.4387  -3.4281  -3.4264
    -3.4246  -3.4059  -3.4039  -3.2993  -3.2905  -3.2478  -3.2356  -3.1549
    -3.1502  -3.1490  -3.1476  -3.1018  -3.0953  -3.0920  -3.0888  -3.0324
    -3.0249  -3.0116  -3.0041  -2.9957  -2.9954  -2.9748  -2.9712  -2.8794
    -2.8703  -2.8378  -2.8205  -2.8042  -2.8017  -2.7982  -2.7962  -2.7529
    -2.7416  -2.7389  -2.7350  -2.6869  -2.6799  -2.6595  -2.6535  -2.6519
    -2.5478  -2.5408  -2.5381  -2.5308  -2.4476  -2.4101  -2.4094  -2.4066
    -2.4049  -2.2969  -1.8293  -1.7447  -1.6104  -0.6289  -0.6197  -0.6152
    -0.5332  -0.3434  -0.3398  -0.3321  -0.3311  -0.1800  -0.1401   0.8511
     0.8992

     the Fermi energy is    -0.5826 ev

!    total energy              =   -8954.27123710 Ry
     Harris-Foulkes estimate   =   -8954.27123746 Ry
     estimated scf accuracy    <       0.00000062 Ry

     The total energy is the sum of the following terms:

     one-electron contribution =  -82926.22154501 Ry
     hartree contribution      =   41292.68774785 Ry
     xc contribution           =    -856.14010656 Ry
     ewald contribution        =   33535.45252085 Ry
     smearing contrib. (-TS)   =      -0.04985423 Ry

     convergence has been achieved in  28 iterations

     Forces acting on atoms (Ry/au):


     negative rho (up, down):  2.979E-03 0.000E+00
     atom    1 type  1   force =     0.00000348    0.00007295   -0.03176894
     atom    2 type  1   force =     0.00013614   -0.00006008    0.03299473
     atom    3 type  1   force =    -0.00028709    0.00029165   -0.03361524
     atom    4 type  1   force =     0.00000109    0.00021573    0.03268092
     atom    5 type  1   force =    -0.00051371   -0.00024673   -0.03341037
     atom    6 type  1   force =    -0.00009458   -0.00020159    0.03335204
     atom    7 type  1   force =     0.00001629   -0.00055844   -0.03373865
     atom    8 type  1   force =     0.00003566    0.00008127    0.03264785
     atom    9 type  1   force =     0.00049026    0.00024578   -0.03357486
     atom   10 type  1   force =    -0.00030289   -0.00156497    0.03292728
     atom   11 type  1   force =     0.00028456    0.00029277   -0.03360871
     atom   12 type  1   force =    -0.00272924    0.00025251    0.03147659
     atom   13 type  1   force =     0.00000081   -0.00020786   -0.03297017
     atom   14 type  1   force =     0.00009096   -0.00020119    0.03334987
     atom   15 type  1   force =    -0.00013756    0.00000846   -0.03260920
     atom   16 type  1   force =    -0.00000128   -0.00018938    0.03320047
     atom   17 type  1   force =    -0.00000313    0.00043955   -0.03419776
     atom   18 type  1   force =     0.00031019   -0.00159303    0.03290845
     atom   19 type  1   force =    -0.00076958   -0.00037838   -0.03084964
     atom   20 type  1   force =     0.00005302    0.00444220   -0.00039666
     atom   21 type  1   force =     0.00051366   -0.00024490   -0.03340180
     atom   22 type  1   force =    -0.00186728    0.00265787    0.03087518
     atom   23 type  1   force =     0.00013926    0.00001009   -0.03261500
     atom   24 type  1   force =    -0.00002794    0.00007765    0.03265096
     atom   25 type  1   force =    -0.00048931    0.00024512   -0.03357405
     atom   26 type  1   force =    -0.00014186   -0.00005818    0.03299749
     atom   27 type  1   force =     0.00077902   -0.00037858   -0.03086079
     atom   28 type  1   force =     0.00275494    0.00026677    0.03146233
     atom   29 type  1   force =    -0.00000049    0.00120028   -0.03095777
     atom   30 type  1   force =     0.00188111    0.00265154    0.03085520
     atom   31 type  1   force =    -0.00001840   -0.00056106   -0.03374707
     atom   32 type  1   force =    -0.00000510   -0.00019878    0.03330702
     atom   33 type  2   force =     0.00005944   -0.01789950    0.01016762
     atom   34 type  2   force =    -0.00082658   -0.00456055    0.00266229
     atom   35 type  2   force =    -0.00057313    0.01206212   -0.02561242
     atom   36 type  3   force =    -0.00059587    0.01003359   -0.02080895
     atom   37 type  3   force =    -0.00009272   -0.01211860    0.01634417
     atom   38 type  3   force =    -0.00041707    0.02142784   -0.01701564
     atom   39 type  3   force =     0.00107536    0.01069842   -0.00913936
     atom   40 type  3   force =     0.00118610   -0.00906103    0.04561845
     atom   41 type  4   force =    -0.00001415   -0.00620399    0.00935144
     atom   42 type  4   force =     0.00046017   -0.00612331    0.00949937
     atom   43 type  4   force =    -0.00181482    0.00564832   -0.01017603
     atom   44 type  4   force =     0.00189001    0.00562430   -0.01031945
     atom   45 type  4   force =    -0.00243158   -0.00692681    0.01034740
     atom   46 type  4   force =     0.00176356   -0.00711832    0.01082522
     atom   47 type  4   force =    -0.00008911    0.00282852   -0.00124650
     atom   48 type  4   force =     0.00031934   -0.00512004    0.01771265

     Total force =     0.199356     Total SCF correction =     0.001380
 !ASE

     Writing output data file calc.save
     Check: negative starting charge=   -0.002288
     NEW-OLD atomic charge density approx. for the potential
     Check: negative starting charge=   -0.002270

     negative rho (up, down):  4.016E-03 0.000E+00

     total cpu time spent up to now is     5132.5 secs

     per-process dynamical memory:   554.4 Mb

     Self-consistent Calculation

     iteration #  1     ecut=    40.42 Ry     beta=0.20
     Davidson diagonalization with overlap
     ethr =  1.26E-10,  avg # of iterations = 13.5

     negative rho (up, down):  3.013E-03 0.000E+00

     total cpu time spent up to now is     5845.7 secs

     total energy              =   -8954.23778354 Ry
     Harris-Foulkes estimate   =   -8954.24831465 Ry
     estimated scf accuracy    <       0.09195657 Ry

     iteration #  2     ecut=    40.42 Ry     beta=0.20
     Davidson diagonalization with overlap
     ethr =  1.41E-05,  avg # of iterations =  2.0

     negative rho (up, down):  4.134E-03 0.000E+00

     total cpu time spent up to now is     6002.0 secs

     total energy              =   -8954.20800681 Ry
     Harris-Foulkes estimate   =   -8954.23820642 Ry
     estimated scf accuracy    <       0.06361460 Ry

     iteration #  3     ecut=    40.42 Ry     beta=0.20
     Davidson diagonalization with overlap
     ethr =  9.73E-06,  avg # of iterations =  3.0

     negative rho (up, down):  2.763E-03 0.000E+00

     total cpu time spent up to now is     6180.7 secs

     total energy              =   -8954.21665934 Ry
     Harris-Foulkes estimate   =   -8954.21721099 Ry
     estimated scf accuracy    <       0.00564161 Ry

     iteration #  4     ecut=    40.42 Ry     beta=0.20
     Davidson diagonalization with overlap
     ethr =  8.63E-07,  avg # of iterations =  3.0

     negative rho (up, down):  1.991E-03 0.000E+00

     total cpu time spent up to now is     6348.3 secs

     total energy              =   -8954.21616867 Ry
     Harris-Foulkes estimate   =   -8954.21692997 Ry
     estimated scf accuracy    <       0.00343222 Ry

     iteration #  5     ecut=    40.42 Ry     beta=0.20
     Davidson diagonalization with overlap
     ethr =  5.25E-07,  avg # of iterations =  3.0

     negative rho (up, down):  1.284E-03 0.000E+00

     total cpu time spent up to now is     6521.0 secs

     total energy              =   -8954.21612439 Ry
     Harris-Foulkes estimate   =   -8954.21635313 Ry
     estimated scf accuracy    <       0.00184074 Ry

     iteration #  6     ecut=    40.42 Ry     beta=0.20
     Davidson diagonalization with overlap
     ethr =  2.81E-07,  avg # of iterations =  2.0

     negative rho (up, down):  7.845E-04 0.000E+00

     total cpu time spent up to now is     6685.0 secs

     total energy              =   -8954.21596312 Ry
     Harris-Foulkes estimate   =   -8954.21615395 Ry
     estimated scf accuracy    <       0.00126956 Ry

     iteration #  7     ecut=    40.42 Ry     beta=0.20
     Davidson diagonalization with overlap
     ethr =  1.94E-07,  avg # of iterations =  2.0

     negative rho (up, down):  7.593E-04 0.000E+00

     total cpu time spent up to now is     6848.0 secs

     total energy              =   -8954.21595063 Ry
     Harris-Foulkes estimate   =   -8954.21601284 Ry
     estimated scf accuracy    <       0.00089114 Ry

     iteration #  8     ecut=    40.42 Ry     beta=0.20
     Davidson diagonalization with overlap
     ethr =  1.36E-07,  avg # of iterations =  2.0

     negative rho (up, down):  1.176E-03 0.000E+00

     total cpu time spent up to now is     7014.4 secs

     total energy              =   -8954.21582321 Ry
     Harris-Foulkes estimate   =   -8954.21596471 Ry
     estimated scf accuracy    <       0.00073670 Ry

     iteration #  9     ecut=    40.42 Ry     beta=0.20
     Davidson diagonalization with overlap
     ethr =  1.13E-07,  avg # of iterations =  3.0

     negative rho (up, down):  1.974E-03 0.000E+00

     total cpu time spent up to now is     7181.6 secs

     total energy              =   -8954.21569721 Ry
     Harris-Foulkes estimate   =   -8954.21584452 Ry
     estimated scf accuracy    <       0.00050670 Ry

     iteration # 10     ecut=    40.42 Ry     beta=0.20
     Davidson diagonalization with overlap
     ethr =  7.75E-08,  avg # of iterations =  3.0

     negative rho (up, down):  4.410E-03 0.000E+00

     total cpu time spent up to now is     7342.0 secs

     total energy              =   -8954.21561841 Ry
     Harris-Foulkes estimate   =   -8954.21572029 Ry
     estimated scf accuracy    <       0.00029462 Ry

     iteration # 11     ecut=    40.42 Ry     beta=0.20
     Davidson diagonalization with overlap
     ethr =  4.50E-08,  avg # of iterations =  3.0

     negative rho (up, down):  2.999E-03 0.000E+00

     total cpu time spent up to now is     7506.4 secs

     total energy              =   -8954.21560890 Ry
     Harris-Foulkes estimate   =   -8954.21563813 Ry
     estimated scf accuracy    <       0.00012340 Ry

     iteration # 12     ecut=    40.42 Ry     beta=0.20
     Davidson diagonalization with overlap
     ethr =  1.89E-08,  avg # of iterations =  3.0

     negative rho (up, down):  2.525E-03 0.000E+00

     total cpu time spent up to now is     7668.2 secs

     total energy              =   -8954.21560777 Ry
     Harris-Foulkes estimate   =   -8954.21561459 Ry
     estimated scf accuracy    <       0.00004672 Ry

     iteration # 13     ecut=    40.42 Ry     beta=0.20
     Davidson diagonalization with overlap
     ethr =  7.14E-09,  avg # of iterations =  3.0

     negative rho (up, down):  1.990E-03 0.000E+00

     total cpu time spent up to now is     7831.0 secs

     total energy              =   -8954.21560839 Ry
     Harris-Foulkes estimate   =   -8954.21561104 Ry
     estimated scf accuracy    <       0.00002795 Ry

     iteration # 14     ecut=    40.42 Ry     beta=0.20
     Davidson diagonalization with overlap
     ethr =  4.27E-09,  avg # of iterations =  3.0

     negative rho (up, down):  1.971E-03 0.000E+00

     total cpu time spent up to now is     7998.7 secs

     total energy              =   -8954.21560747 Ry
     Harris-Foulkes estimate   =   -8954.21561034 Ry
     estimated scf accuracy    <       0.00001243 Ry

     iteration # 15     ecut=    40.42 Ry     beta=0.20
     Davidson diagonalization with overlap
     ethr =  1.90E-09,  avg # of iterations =  2.2

     negative rho (up, down):  2.264E-03 0.000E+00

     total cpu time spent up to now is     8161.8 secs

     total energy              =   -8954.21560475 Ry
     Harris-Foulkes estimate   =   -8954.21560779 Ry
     estimated scf accuracy    <       0.00000848 Ry

     iteration # 16     ecut=    40.42 Ry     beta=0.20
     Davidson diagonalization with overlap
     ethr =  1.30E-09,  avg # of iterations =  3.0

     negative rho (up, down):  2.304E-03 0.000E+00

     total cpu time spent up to now is     8328.8 secs

     total energy              =   -8954.21560482 Ry
     Harris-Foulkes estimate   =   -8954.21560543 Ry
     estimated scf accuracy    <       0.00000317 Ry

     iteration # 17     ecut=    40.42 Ry     beta=0.20
     Davidson diagonalization with overlap
     ethr =  4.85E-10,  avg # of iterations =  2.0

     negative rho (up, down):  2.697E-03 0.000E+00

     total cpu time spent up to now is     8482.6 secs

     total energy              =   -8954.21560328 Ry
     Harris-Foulkes estimate   =   -8954.21560485 Ry
     estimated scf accuracy    <       0.00000264 Ry

     iteration # 18     ecut=    40.42 Ry     beta=0.20
     Davidson diagonalization with overlap
     ethr =  4.04E-10,  avg # of iterations =  3.0

     negative rho (up, down):  3.084E-03 0.000E+00

     total cpu time spent up to now is     8631.7 secs

     End of self-consistent calculation

          k = 0.0000 0.0000 0.0000 (100843 PWs)   bands (ev):

  -106.0181-105.9159-105.9035-105.9017-105.8808-105.8787-105.8642-105.8617
  -105.8614-105.8591-105.8582-105.8575-105.8549-105.8534-105.8520-105.8519
  -105.8515-105.8513-105.8507-105.8503-105.8498-105.8496-105.8487-105.8481
  -105.8464-105.8458-105.8448-105.8436-105.8432-105.8426-105.8426-105.8415
   -57.3843 -57.3783 -57.3276 -57.3139 -57.3097 -57.3076 -57.2943 -57.2929
   -57.2814 -57.2771 -57.2769 -57.2761 -57.2749 -57.2748 -57.2741 -57.2735
   -57.2690 -57.2688 -57.2517 -57.2472 -57.2382 -57.2356 -57.2297 -57.2279
   -57.2256 -57.2245 -57.2242 -57.2236 -57.2220 -57.2201 -57.2180 -57.2149
   -57.2146 -57.2110 -57.2096 -57.2093 -57.2087 -57.2073 -57.2051 -57.2047
   -57.1995 -57.1992 -57.1980 -57.1881 -57.1869 -57.1846 -57.1730 -57.1728
   -57.1712 -57.1687 -57.1677 -57.1654 -57.1611 -57.1607 -57.1586 -57.1554
   -57.1548 -57.1485 -57.1479 -57.1470 -57.1440 -57.1394 -57.1391 -57.1275
   -57.1274 -57.0797 -57.0684 -57.0650 -57.0441 -57.0371 -57.0335 -57.0297
   -57.0275 -57.0242 -57.0188 -57.0174 -57.0112 -57.0090 -57.0054 -57.0052
   -57.0040 -57.0015 -56.9989 -56.9860 -56.9847 -56.9837 -56.9830 -56.9824
   -56.9822 -56.9814 -56.9813 -56.9803 -56.9779 -56.9776 -56.9774 -56.9755
   -25.6878 -23.7977 -21.6325 -16.2349 -14.4722 -12.7951 -10.4880  -9.2779
    -8.7265  -8.7077  -8.6311  -8.2432  -7.7054  -7.5903  -7.4524  -7.1822
    -7.1327  -7.1302  -7.1210  -7.1198  -7.1108  -7.0003  -6.6862  -6.6859
    -6.6810  -6.6477  -6.6390  -6.6372  -6.4073  -6.3610  -6.2821  -6.2679
    -6.2647  -6.2608  -6.2555  -6.2460  -5.9068  -5.8968  -5.8773  -5.8053
    -5.8027  -5.7933  -5.7851  -5.7843  -5.7806  -5.6003  -5.5457  -5.5423
    -5.5264  -5.5236  -5.5197  -5.5194  -5.4804  -5.4730  -5.4654  -5.4637
    -5.4584  -5.4577  -5.3155  -5.2997  -5.2954  -5.2910  -5.2898  -5.2843
    -5.2759  -5.2732  -5.0741  -5.0672  -5.0545  -4.9440  -4.8636  -4.8556
    -4.8553  -4.8470  -4.8454  -4.8449  -4.8088  -4.7553  -4.7460  -4.7398
    -4.7352  -4.7274  -4.6789  -4.6786  -4.6139  -4.5807  -4.5769  -4.5517
    -4.5236  -4.5185  -4.5166  -4.5079  -4.5077  -4.5011  -4.4996  -4.4982
    -4.4977  -4.4970  -4.4713  -4.4540  -4.4445  -4.4426  -4.4325  -4.4167
    -4.3915  -4.2972  -4.2958  -4.2778  -4.2732  -4.2706  -4.2658  -4.2492
    -4.2486  -4.2484  -4.2384  -4.2346  -4.2312  -3.9107  -3.9060  -3.8932
    -3.8393  -3.7577  -3.7534  -3.7434  -3.7416  -3.7384  -3.7333  -3.7274
    -3.5557  -3.5545  -3.5525  -3.5471  -3.5452  -3.5424  -3.5213  -3.5184
    -3.5147  -3.5005  -3.4746  -3.4239  -3.3858  -3.3729  -3.3340  -3.3306
    -3.3299  -3.3285  -3.3233  -3.3087  -3.2923  -3.2908  -3.2901  -3.2878
    -3.2780  -3.2771  -3.2754  -3.1606  -3.1590  -3.1219  -3.1127  -3.1100
    -3.1098  -3.0894  -3.0456  -2.9193  -2.9131  -2.9050  -2.8456  -2.8432
    -2.8409  -2.7350  -2.6972  -2.6917  -2.6880  -2.6865  -2.6843  -2.6814
    -2.6360  -2.6346  -2.4694  -2.4690  -2.4659  -2.4628  -2.4625  -2.3745
    -2.1099  -2.1085  -2.1039  -2.0397  -2.0394  -2.0380  -1.8078  -1.6801
    -1.6708  -1.6628  -1.6605  -1.6543  -1.3924  -0.1116  -0.0946  -0.0918
    -0.0905  -0.0898  -0.0839   0.0033   0.1973   0.1986   0.2038   1.0106
     1.0202

          k = 0.0000-0.0501 0.0000 (100960 PWs)   bands (ev):

  -106.0181-105.9159-105.9035-105.9017-105.8808-105.8787-105.8642-105.8617
  -105.8614-105.8591-105.8583-105.8575-105.8548-105.8531-105.8523-105.8520
  -105.8512-105.8511-105.8507-105.8506-105.8502-105.8497-105.8485-105.8479
  -105.8464-105.8454-105.8449-105.8438-105.8434-105.8426-105.8425-105.8415
   -57.3830 -57.3777 -57.3225 -57.3089 -57.3031 -57.2988 -57.2922 -57.2915
   -57.2854 -57.2853 -57.2809 -57.2780 -57.2766 -57.2733 -57.2713 -57.2689
   -57.2645 -57.2628 -57.2600 -57.2564 -57.2558 -57.2524 -57.2514 -57.2480
   -57.2452 -57.2344 -57.2329 -57.2280 -57.2234 -57.2224 -57.2146 -57.2141
   -57.2073 -57.2033 -57.2009 -57.1976 -57.1955 -57.1932 -57.1916 -57.1858
   -57.1847 -57.1825 -57.1817 -57.1805 -57.1788 -57.1779 -57.1756 -57.1749
   -57.1714 -57.1712 -57.1684 -57.1677 -57.1629 -57.1624 -57.1599 -57.1584
   -57.1569 -57.1562 -57.1505 -57.1501 -57.1462 -57.1446 -57.1440 -57.1381
   -57.1305 -57.0796 -57.0684 -57.0651 -57.0440 -57.0373 -57.0327 -57.0319
   -57.0287 -57.0217 -57.0165 -57.0133 -57.0126 -57.0119 -57.0109 -57.0056
   -57.0039 -56.9989 -56.9969 -56.9867 -56.9858 -56.9833 -56.9830 -56.9825
   -56.9817 -56.9816 -56.9812 -56.9800 -56.9781 -56.9774 -56.9773 -56.9757
   -25.6878 -23.7977 -21.6325 -16.2349 -14.4722 -12.7951 -10.4879  -9.2779
    -8.7090  -8.6553  -8.2588  -8.2265  -8.2043  -7.7053  -7.5864  -7.3785
    -7.3685  -7.0145  -6.9912  -6.9883  -6.6964  -6.6808  -6.5177  -6.4556
    -6.4480  -6.4343  -6.4307  -6.4281  -6.3625  -6.3532  -6.3475  -6.3396
    -6.3336  -6.3317  -6.2420  -6.2391  -6.2380  -6.2361  -6.2235  -6.2232
    -5.9367  -5.9327  -5.9243  -5.9241  -5.7828  -5.7523  -5.7409  -5.7321
    -5.7311  -5.6988  -5.6537  -5.6441  -5.5949  -5.5268  -5.5188  -5.4913
    -5.4878  -5.4823  -5.4709  -5.4589  -5.4436  -5.3079  -5.2842  -5.2165
    -5.1968  -5.0802  -5.0531  -4.9802  -4.9705  -4.9630  -4.9510  -4.9406
    -4.9376  -4.9161  -4.9093  -4.8638  -4.8506  -4.8459  -4.8384  -4.8213
    -4.7982  -4.7936  -4.7923  -4.7362  -4.7198  -4.7101  -4.7052  -4.6621
    -4.5953  -4.5912  -4.5855  -4.5728  -4.5672  -4.4714  -4.4120  -4.4104
    -4.4002  -4.3916  -4.3831  -4.3690  -4.2973  -4.2795  -4.2329  -4.2278
    -4.1872  -4.1498  -4.1261  -4.1231  -4.1163  -4.1103  -4.0815  -4.0746
    -3.9456  -3.9267  -3.9088  -3.9061  -3.9007  -3.8507  -3.8299  -3.8087
    -3.7994  -3.7694  -3.7406  -3.6850  -3.6700  -3.6641  -3.6324  -3.6270
    -3.6265  -3.6152  -3.5940  -3.5546  -3.5194  -3.4842  -3.4193  -3.4165
    -3.3456  -3.3422  -3.3375  -3.3354  -3.3308  -3.3297  -3.3048  -3.2767
    -3.2705  -3.2657  -3.2525  -3.2026  -3.1545  -3.1451  -3.1371  -3.0761
    -3.0219  -3.0173  -3.0060  -3.0011  -2.9964  -2.9941  -2.9927  -2.9819
    -2.9099  -2.9016  -2.9015  -2.8960  -2.8934  -2.8553  -2.8496  -2.8445
    -2.7782  -2.7755  -2.7333  -2.7124  -2.6671  -2.6642  -2.6628  -2.6489
    -2.6413  -2.6360  -2.5422  -2.5377  -2.5242  -2.5032  -2.4853  -2.4764
    -2.4316  -2.4205  -2.4187  -2.4129  -2.3670  -2.2382  -2.2009  -2.1954
    -2.1933  -2.1889  -1.8442  -1.7968  -1.7456  -0.7145  -0.6985  -0.6853
    -0.5866  -0.2733  -0.2186  -0.0938  -0.0893  -0.0786  -0.0767   0.8842
     0.9470

          k = 0.0433-0.0250 0.0000 (100960 PWs)   bands (ev):

  -106.0181-105.9159-105.9035-105.9017-105.8808-105.8787-105.8638-105.8629
  -105.8600-105.8597-105.8582-105.8575-105.8549-105.8533-105.8523-105.8518
  -105.8512-105.8511-105.8507-105.8506-105.8503-105.8494-105.8491-105.8472
  -105.8467-105.8456-105.8449-105.8436-105.8431-105.8429-105.8425-105.8415
   -57.3836 -57.3772 -57.3234 -57.3075 -57.3028 -57.2964 -57.2922 -57.2907
   -57.2856 -57.2825 -57.2809 -57.2791 -57.2775 -57.2756 -57.2729 -57.2700
   -57.2649 -57.2627 -57.2626 -57.2586 -57.2563 -57.2527 -57.2514 -57.2478
   -57.2438 -57.2349 -57.2320 -57.2259 -57.2250 -57.2169 -57.2145 -57.2123
   -57.2048 -57.2042 -57.2027 -57.1984 -57.1941 -57.1927 -57.1911 -57.1885
   -57.1868 -57.1827 -57.1816 -57.1795 -57.1792 -57.1778 -57.1755 -57.1751
   -57.1732 -57.1719 -57.1688 -57.1672 -57.1631 -57.1620 -57.1592 -57.1584
   -57.1570 -57.1566 -57.1511 -57.1499 -57.1456 -57.1451 -57.1427 -57.1385
   -57.1303 -57.0796 -57.0682 -57.0654 -57.0431 -57.0381 -57.0362 -57.0285
   -57.0265 -57.0205 -57.0197 -57.0148 -57.0143 -57.0123 -57.0075 -57.0054
   -57.0013 -57.0006 -56.9980 -56.9865 -56.9854 -56.9837 -56.9830 -56.9823
   -56.9817 -56.9814 -56.9810 -56.9805 -56.9778 -56.9777 -56.9773 -56.9756
   -25.6878 -23.7977 -21.6325 -16.2349 -14.4722 -12.7951 -10.4879  -9.2779
    -8.7091  -8.6551  -8.2550  -8.2272  -8.2076  -7.7053  -7.5866  -7.3782
    -7.3686  -7.0191  -6.9885  -6.9866  -6.6924  -6.6800  -6.5180  -6.4588
    -6.4506  -6.4330  -6.4315  -6.4300  -6.3773  -6.3611  -6.3483  -6.3450
    -6.3357  -6.3177  -6.2458  -6.2417  -6.2327  -6.2254  -6.2231  -6.2103
    -5.9338  -5.9318  -5.9247  -5.9217  -5.7750  -5.7703  -5.7333  -5.7314
    -5.7280  -5.6997  -5.6550  -5.6437  -5.5859  -5.5421  -5.5201  -5.4917
    -5.4877  -5.4826  -5.4782  -5.4545  -5.4451  -5.3091  -5.2843  -5.2160
    -5.1979  -5.0748  -5.0524  -4.9725  -4.9645  -4.9570  -4.9513  -4.9412
    -4.9382  -4.9314  -4.9085  -4.8635  -4.8496  -4.8473  -4.8368  -4.8178
    -4.7970  -4.7952  -4.7912  -4.7294  -4.7250  -4.7126  -4.7079  -4.6503
    -4.6119  -4.5943  -4.5756  -4.5738  -4.5711  -4.4654  -4.4153  -4.4129
    -4.4053  -4.3860  -4.3777  -4.3689  -4.2972  -4.2788  -4.2371  -4.2351
    -4.1893  -4.1473  -4.1325  -4.1253  -4.1196  -4.1139  -4.0888  -4.0758
    -3.9409  -3.9307  -3.9090  -3.9058  -3.8760  -3.8443  -3.8346  -3.8080
    -3.8069  -3.7650  -3.7321  -3.6843  -3.6701  -3.6664  -3.6355  -3.6255
    -3.6222  -3.6199  -3.5805  -3.5594  -3.5314  -3.4834  -3.4227  -3.4183
    -3.3442  -3.3423  -3.3394  -3.3362  -3.3328  -3.3264  -3.3147  -3.2892
    -3.2768  -3.2516  -3.2448  -3.2006  -3.1555  -3.1511  -3.1278  -3.0801
    -3.0218  -3.0117  -3.0053  -2.9998  -2.9993  -2.9957  -2.9911  -2.9801
    -2.9074  -2.9054  -2.8994  -2.8959  -2.8934  -2.8580  -2.8481  -2.8451
    -2.7781  -2.7766  -2.7345  -2.7114  -2.6680  -2.6637  -2.6622  -2.6519
    -2.6380  -2.6325  -2.5407  -2.5346  -2.5240  -2.5056  -2.4828  -2.4771
    -2.4286  -2.4231  -2.4186  -2.4171  -2.3645  -2.2368  -2.2010  -2.1971
    -2.1922  -2.1900  -1.8589  -1.7897  -1.7346  -0.7115  -0.7027  -0.6840
    -0.5871  -0.2669  -0.2279  -0.0988  -0.0891  -0.0766  -0.0759   0.8847
     0.9392

          k =-0.0433-0.0250 0.0000 (100960 PWs)   bands (ev):

  -106.0181-105.9159-105.9035-105.9017-105.8808-105.8787-105.8638-105.8629
  -105.8601-105.8597-105.8582-105.8575-105.8549-105.8533-105.8521-105.8519
  -105.8513-105.8510-105.8508-105.8505-105.8503-105.8494-105.8491-105.8472
  -105.8467-105.8456-105.8449-105.8436-105.8431-105.8429-105.8425-105.8415
   -57.3836 -57.3772 -57.3234 -57.3075 -57.3028 -57.2963 -57.2922 -57.2908
   -57.2856 -57.2825 -57.2810 -57.2791 -57.2775 -57.2756 -57.2729 -57.2700
   -57.2649 -57.2627 -57.2626 -57.2585 -57.2563 -57.2527 -57.2513 -57.2478
   -57.2438 -57.2349 -57.2320 -57.2260 -57.2250 -57.2169 -57.2145 -57.2123
   -57.2048 -57.2042 -57.2028 -57.1983 -57.1940 -57.1928 -57.1911 -57.1885
   -57.1869 -57.1827 -57.1816 -57.1795 -57.1792 -57.1778 -57.1755 -57.1751
   -57.1732 -57.1719 -57.1688 -57.1672 -57.1631 -57.1619 -57.1592 -57.1584
   -57.1570 -57.1565 -57.1511 -57.1499 -57.1456 -57.1451 -57.1427 -57.1385
   -57.1303 -57.0796 -57.0682 -57.0654 -57.0431 -57.0382 -57.0361 -57.0285
   -57.0265 -57.0206 -57.0197 -57.0149 -57.0143 -57.0123 -57.0074 -57.0052
   -57.0014 -57.0007 -56.9978 -56.9865 -56.9854 -56.9837 -56.9830 -56.9824
   -56.9816 -56.9815 -56.9810 -56.9805 -56.9779 -56.9777 -56.9772 -56.9756
   -25.6878 -23.7977 -21.6325 -16.2349 -14.4722 -12.7951 -10.4879  -9.2779
    -8.7091  -8.6552  -8.2550  -8.2272  -8.2076  -7.7054  -7.5866  -7.3782
    -7.3686  -7.0190  -6.9886  -6.9866  -6.6924  -6.6800  -6.5179  -6.4587
    -6.4506  -6.4329  -6.4314  -6.4300  -6.3771  -6.3609  -6.3482  -6.3452
    -6.3359  -6.3182  -6.2458  -6.2417  -6.2328  -6.2254  -6.2232  -6.2099
    -5.9339  -5.9318  -5.9246  -5.9219  -5.7744  -5.7703  -5.7336  -5.7314
    -5.7282  -5.6996  -5.6551  -5.6437  -5.5858  -5.5418  -5.5200  -5.4917
    -5.4875  -5.4825  -5.4782  -5.4548  -5.4451  -5.3091  -5.2842  -5.2160
    -5.1978  -5.0749  -5.0525  -4.9739  -4.9646  -4.9553  -4.9513  -4.9412
    -4.9379  -4.9313  -4.9087  -4.8634  -4.8496  -4.8473  -4.8369  -4.8187
    -4.7969  -4.7952  -4.7913  -4.7282  -4.7250  -4.7126  -4.7080  -4.6502
    -4.6122  -4.5944  -4.5754  -4.5737  -4.5709  -4.4656  -4.4153  -4.4128
    -4.4053  -4.3861  -4.3782  -4.3689  -4.2972  -4.2788  -4.2370  -4.2347
    -4.1896  -4.1474  -4.1315  -4.1252  -4.1197  -4.1140  -4.0893  -4.0758
    -3.9375  -3.9307  -3.9116  -3.9062  -3.8811  -3.8410  -3.8332  -3.8078
    -3.8066  -3.7664  -3.7314  -3.6832  -3.6701  -3.6667  -3.6355  -3.6255
    -3.6223  -3.6199  -3.5796  -3.5591  -3.5315  -3.4848  -3.4227  -3.4183
    -3.3442  -3.3424  -3.3394  -3.3362  -3.3329  -3.3263  -3.3146  -3.2904
    -3.2768  -3.2516  -3.2452  -3.2003  -3.1555  -3.1511  -3.1278  -3.0794
    -3.0218  -3.0117  -3.0053  -2.9997  -2.9993  -2.9956  -2.9910  -2.9802
    -2.9074  -2.9053  -2.8994  -2.8959  -2.8935  -2.8580  -2.8481  -2.8451
    -2.7782  -2.7767  -2.7344  -2.7113  -2.6679  -2.6638  -2.6622  -2.6518
    -2.6381  -2.6325  -2.5407  -2.5347  -2.5240  -2.5055  -2.4828  -2.4771
    -2.4286  -2.4231  -2.4185  -2.4172  -2.3644  -2.2368  -2.2010  -2.1971
    -2.1922  -2.1900  -1.8588  -1.7896  -1.7350  -0.7115  -0.7026  -0.6843
    -0.5874  -0.2670  -0.2273  -0.0986  -0.0891  -0.0766  -0.0758   0.8853
     0.9387

     the Fermi energy is    -0.6089 ev

!    total energy              =   -8954.21560238 Ry
     Harris-Foulkes estimate   =   -8954.21560356 Ry
     estimated scf accuracy    <       0.00000062 Ry

     The total energy is the sum of the following terms:

     one-electron contribution =  -81508.54859101 Ry
     hartree contribution      =   40588.44594008 Ry
     xc contribution           =    -855.75876135 Ry
     ewald contribution        =   32821.67826017 Ry
     smearing contrib. (-TS)   =      -0.03245028 Ry

     convergence has been achieved in  18 iterations

     Forces acting on atoms (Ry/au):


     negative rho (up, down):  3.084E-03 0.000E+00
     atom    1 type  1   force =     0.00000007   -0.00004984   -0.01087058
     atom    2 type  1   force =     0.00002901   -0.00009954    0.01186758
     atom    3 type  1   force =     0.00010366    0.00016541   -0.01274999
     atom    4 type  1   force =     0.00000402   -0.00005890    0.01196283
     atom    5 type  1   force =     0.00050643    0.00018428   -0.01258118
     atom    6 type  1   force =     0.00036787    0.00013699    0.01214598
     atom    7 type  1   force =     0.00016488    0.00016575   -0.01293930
     atom    8 type  1   force =     0.00009846    0.00027527    0.01199174
     atom    9 type  1   force =     0.00016573   -0.00006808   -0.01269183
     atom   10 type  1   force =    -0.00069147   -0.00182404    0.01075187
     atom   11 type  1   force =    -0.00010273    0.00016560   -0.01273718
     atom   12 type  1   force =    -0.00268767    0.00008703    0.01039666
     atom   13 type  1   force =     0.00000060   -0.00012389   -0.01193124
     atom   14 type  1   force =    -0.00036434    0.00013295    0.01213930
     atom   15 type  1   force =    -0.00004939    0.00004461   -0.01174343
     atom   16 type  1   force =    -0.00000227   -0.00024583    0.01221649
     atom   17 type  1   force =    -0.00000188   -0.00023735   -0.01286816
     atom   18 type  1   force =     0.00069527   -0.00183042    0.01075751
     atom   19 type  1   force =    -0.00262131   -0.00188030   -0.01103933
     atom   20 type  1   force =     0.00004365    0.00300459   -0.00307143
     atom   21 type  1   force =    -0.00050537    0.00018495   -0.01256369
     atom   22 type  1   force =    -0.00189236    0.00297568    0.01009338
     atom   23 type  1   force =     0.00005038    0.00004452   -0.01174520
     atom   24 type  1   force =    -0.00009577    0.00026654    0.01199584
     atom   25 type  1   force =    -0.00016414   -0.00007104   -0.01269666
     atom   26 type  1   force =    -0.00003048   -0.00009605    0.01187369
     atom   27 type  1   force =     0.00262734   -0.00188368   -0.01105518
     atom   28 type  1   force =     0.00271095    0.00008520    0.01039746
     atom   29 type  1   force =    -0.00000242    0.00354825   -0.01157859
     atom   30 type  1   force =     0.00190769    0.00298479    0.01008065
     atom   31 type  1   force =    -0.00016691    0.00016559   -0.01294368
     atom   32 type  1   force =    -0.00000115    0.00023984    0.01205998
     atom   33 type  2   force =     0.00792146    0.29764410   -0.37046595
     atom   34 type  2   force =    -0.00003770    0.00482937    0.01378663
     atom   35 type  2   force =     0.01436322   -0.59485988    0.61107926
     atom   36 type  3   force =     0.00148846   -0.02710184    0.13801359
     atom   37 type  3   force =     0.00043726    0.05157980   -0.09663759
     atom   38 type  3   force =    -0.00657653   -0.30104369    0.34614819
     atom   39 type  3   force =    -0.00433454   -0.05400974    0.05361533
     atom   40 type  3   force =    -0.01505279    0.56764657   -0.62601408
     atom   41 type  4   force =    -0.03288824    0.02327990   -0.02144220
     atom   42 type  4   force =     0.03104344    0.02245608   -0.02075533
     atom   43 type  4   force =    -0.03039140   -0.02663225    0.01611186
     atom   44 type  4   force =     0.03011111   -0.02716794    0.01534699
     atom   45 type  4   force =     0.03217277    0.01503916   -0.02192613
     atom   46 type  4   force =    -0.02883947    0.01476719   -0.02288932
     atom   47 type  4   force =     0.00038918    0.02941752    0.00351072
     atom   48 type  4   force =     0.00009739   -0.00223323    0.00959370

     Total force =     1.390144     Total SCF correction =     0.003049
 !ASE

     Writing output data file calc.save
     Check: negative starting charge=   -0.002270
     NEW-OLD atomic charge density approx. for the potential
     Check: negative starting charge=   -0.002279

     negative rho (up, down):  3.650E-03 0.000E+00

     total cpu time spent up to now is     8675.2 secs

     per-process dynamical memory:   554.4 Mb

     Self-consistent Calculation

     iteration #  1     ecut=    40.42 Ry     beta=0.20
     Davidson diagonalization with overlap
     ethr =  4.04E-10,  avg # of iterations = 12.0

     negative rho (up, down):  3.690E-03 0.000E+00

     total cpu time spent up to now is     9288.3 secs

     total energy              =   -8954.32162502 Ry
     Harris-Foulkes estimate   =   -8954.32545905 Ry
     estimated scf accuracy    <       0.03373761 Ry

     iteration #  2     ecut=    40.42 Ry     beta=0.20
     Davidson diagonalization with overlap
     ethr =  5.16E-06,  avg # of iterations =  1.0

     negative rho (up, down):  8.320E-03 0.000E+00

     total cpu time spent up to now is     9436.2 secs

     total energy              =   -8954.31064756 Ry
     Harris-Foulkes estimate   =   -8954.32177158 Ry
     estimated scf accuracy    <       0.02353593 Ry

     iteration #  3     ecut=    40.42 Ry     beta=0.20
     Davidson diagonalization with overlap
     ethr =  3.60E-06,  avg # of iterations =  3.0

     negative rho (up, down):  7.574E-03 0.000E+00

     total cpu time spent up to now is     9612.5 secs

     total energy              =   -8954.31381519 Ry
     Harris-Foulkes estimate   =   -8954.31399064 Ry
     estimated scf accuracy    <       0.00191873 Ry

     iteration #  4     ecut=    40.42 Ry     beta=0.20
     Davidson diagonalization with overlap
     ethr =  2.93E-07,  avg # of iterations =  3.0

     negative rho (up, down):  7.944E-03 0.000E+00

     total cpu time spent up to now is     9778.8 secs

     total energy              =   -8954.31364027 Ry
     Harris-Foulkes estimate   =   -8954.31389452 Ry
     estimated scf accuracy    <       0.00123965 Ry

     iteration #  5     ecut=    40.42 Ry     beta=0.20
     Davidson diagonalization with overlap
     ethr =  1.90E-07,  avg # of iterations =  3.5

     negative rho (up, down):  8.003E-03 0.000E+00

     total cpu time spent up to now is     9950.0 secs

     total energy              =   -8954.31359062 Ry
     Harris-Foulkes estimate   =   -8954.31370463 Ry
     estimated scf accuracy    <       0.00071339 Ry

     iteration #  6     ecut=    40.42 Ry     beta=0.20
     Davidson diagonalization with overlap
     ethr =  1.09E-07,  avg # of iterations =  2.5

     negative rho (up, down):  8.143E-03 0.000E+00

     total cpu time spent up to now is    10120.1 secs

     total energy              =   -8954.31352794 Ry
     Harris-Foulkes estimate   =   -8954.31360269 Ry
     estimated scf accuracy    <       0.00047017 Ry

     iteration #  7     ecut=    40.42 Ry     beta=0.20
     Davidson diagonalization with overlap
     ethr =  7.19E-08,  avg # of iterations =  3.0

     negative rho (up, down):  7.223E-03 0.000E+00

     total cpu time spent up to now is    10289.2 secs

     total energy              =   -8954.31345039 Ry
     Harris-Foulkes estimate   =   -8954.31354180 Ry
     estimated scf accuracy    <       0.00034927 Ry

     iteration #  8     ecut=    40.42 Ry     beta=0.20
     Davidson diagonalization with overlap
     ethr =  5.34E-08,  avg # of iterations =  3.0

     negative rho (up, down):  7.152E-03 0.000E+00

     total cpu time spent up to now is    10451.7 secs

     total energy              =   -8954.31344491 Ry
     Harris-Foulkes estimate   =   -8954.31346860 Ry
     estimated scf accuracy    <       0.00025613 Ry

     iteration #  9     ecut=    40.42 Ry     beta=0.20
     Davidson diagonalization with overlap
     ethr =  3.92E-08,  avg # of iterations =  1.0

     negative rho (up, down):  5.954E-03 0.000E+00

     total cpu time spent up to now is    10607.3 secs

     total energy              =   -8954.31334603 Ry
     Harris-Foulkes estimate   =   -8954.31344639 Ry
     estimated scf accuracy    <       0.00022233 Ry

     iteration # 10     ecut=    40.42 Ry     beta=0.20
     Davidson diagonalization with overlap
     ethr =  3.40E-08,  avg # of iterations =  3.0

     negative rho (up, down):  5.222E-03 0.000E+00

     total cpu time spent up to now is    10773.5 secs

     total energy              =   -8954.31332177 Ry
     Harris-Foulkes estimate   =   -8954.31336120 Ry
     estimated scf accuracy    <       0.00008691 Ry

     iteration # 11     ecut=    40.42 Ry     beta=0.20
     Davidson diagonalization with overlap
     ethr =  1.33E-08,  avg # of iterations =  3.0

     negative rho (up, down):  4.059E-03 0.000E+00

     total cpu time spent up to now is    10940.8 secs

     total energy              =   -8954.31330673 Ry
     Harris-Foulkes estimate   =   -8954.31332675 Ry
     estimated scf accuracy    <       0.00004898 Ry

     iteration # 12     ecut=    40.42 Ry     beta=0.20
     Davidson diagonalization with overlap
     ethr =  7.49E-09,  avg # of iterations =  3.0

     negative rho (up, down):  3.755E-03 0.000E+00

     total cpu time spent up to now is    11109.1 secs

     total energy              =   -8954.31330694 Ry
     Harris-Foulkes estimate   =   -8954.31331054 Ry
     estimated scf accuracy    <       0.00001314 Ry

     iteration # 13     ecut=    40.42 Ry     beta=0.20
     Davidson diagonalization with overlap
     ethr =  2.01E-09,  avg # of iterations =  2.8

     negative rho (up, down):  3.566E-03 0.000E+00

     total cpu time spent up to now is    11274.8 secs

     total energy              =   -8954.31330515 Ry
     Harris-Foulkes estimate   =   -8954.31330755 Ry
     estimated scf accuracy    <       0.00000775 Ry

     iteration # 14     ecut=    40.42 Ry     beta=0.20
     Davidson diagonalization with overlap
     ethr =  1.19E-09,  avg # of iterations =  4.0

     negative rho (up, down):  3.525E-03 0.000E+00

     total cpu time spent up to now is    11450.1 secs

     total energy              =   -8954.31330476 Ry
     Harris-Foulkes estimate   =   -8954.31330567 Ry
     estimated scf accuracy    <       0.00000339 Ry

     iteration # 15     ecut=    40.42 Ry     beta=0.20
     Davidson diagonalization with overlap
     ethr =  5.18E-10,  avg # of iterations =  3.0

     negative rho (up, down):  3.375E-03 0.000E+00

     total cpu time spent up to now is    11619.9 secs

     total energy              =   -8954.31330321 Ry
     Harris-Foulkes estimate   =   -8954.31330482 Ry
     estimated scf accuracy    <       0.00000266 Ry

     iteration # 16     ecut=    40.42 Ry     beta=0.20
     Davidson diagonalization with overlap
     ethr =  4.07E-10,  avg # of iterations =  3.0

     negative rho (up, down):  3.356E-03 0.000E+00

     total cpu time spent up to now is    11786.8 secs

     total energy              =   -8954.31330322 Ry
     Harris-Foulkes estimate   =   -8954.31330348 Ry
     estimated scf accuracy    <       0.00000086 Ry

     iteration # 17     ecut=    40.42 Ry     beta=0.20
     Davidson diagonalization with overlap
     ethr =  1.32E-10,  avg # of iterations =  2.2

     negative rho (up, down):  3.044E-03 0.000E+00

     total cpu time spent up to now is    11925.4 secs

     End of self-consistent calculation

          k = 0.0000 0.0000 0.0000 (100843 PWs)   bands (ev):

  -106.1225-106.0358-106.0259-106.0240-106.0239-106.0221-106.0066-106.0039
  -106.0023-106.0012-106.0009-105.9998-105.9985-105.9981-105.9970-105.9965
  -105.9959-105.9954-105.9950-105.9944-105.9941-105.9940-105.9934-105.9932
  -105.9920-105.9916-105.9914-105.9902-105.9891-105.9890-105.9886-105.9875
   -57.5007 -57.4954 -57.4582 -57.4479 -57.4472 -57.4452 -57.4338 -57.4330
   -57.4235 -57.4202 -57.4198 -57.4167 -57.4166 -57.4160 -57.4143 -57.4124
   -57.4109 -57.4105 -57.3907 -57.3867 -57.3733 -57.3726 -57.3723 -57.3671
   -57.3670 -57.3647 -57.3645 -57.3629 -57.3609 -57.3599 -57.3590 -57.3574
   -57.3567 -57.3545 -57.3528 -57.3505 -57.3479 -57.3462 -57.3458 -57.3421
   -57.3412 -57.3403 -57.3314 -57.3302 -57.3292 -57.3234 -57.3135 -57.3125
   -57.3108 -57.3104 -57.3097 -57.3079 -57.3044 -57.3043 -57.3031 -57.2943
   -57.2927 -57.2901 -57.2874 -57.2872 -57.2852 -57.2825 -57.2824 -57.2689
   -57.2686 -57.2237 -57.2161 -57.2116 -57.2034 -57.1973 -57.1969 -57.1957
   -57.1826 -57.1808 -57.1780 -57.1747 -57.1700 -57.1678 -57.1665 -57.1655
   -57.1650 -57.1563 -57.1507 -57.1421 -57.1405 -57.1376 -57.1372 -57.1354
   -57.1352 -57.1351 -57.1317 -57.1307 -57.1293 -57.1282 -57.1273 -57.1253
   -24.1296 -22.5490 -21.9451 -16.0788 -14.5451 -12.9984 -10.8830  -9.0009
    -8.9880  -8.4427  -8.2787  -8.0179  -7.6038  -7.4554  -7.4281  -7.4277
    -7.4214  -7.4197  -7.4154  -7.2703  -7.1192  -6.8959  -6.8953  -6.8912
    -6.8549  -6.8503  -6.8483  -6.7573  -6.4641  -6.4499  -6.4495  -6.4460
    -6.4430  -6.4396  -6.2403  -6.2360  -6.1848  -6.1705  -6.1405  -6.1232
    -6.1220  -6.1134  -6.1118  -6.1101  -6.0447  -5.7814  -5.7795  -5.7659
    -5.7651  -5.7636  -5.7620  -5.7406  -5.7390  -5.7325  -5.7320  -5.7293
    -5.7192  -5.5289  -5.5274  -5.5236  -5.5227  -5.5166  -5.5097  -5.2858
    -5.2105  -5.2051  -5.1978  -5.1313  -5.0467  -5.0438  -5.0437  -5.0408
    -5.0405  -5.0346  -5.0262  -4.9886  -4.9331  -4.8992  -4.8895  -4.8867
    -4.8864  -4.8788  -4.8571  -4.8568  -4.7811  -4.7615  -4.7413  -4.7409
    -4.7370  -4.7341  -4.7330  -4.7263  -4.6688  -4.6554  -4.6519  -4.6498
    -4.6477  -4.6476  -4.6205  -4.5949  -4.5887  -4.5872  -4.5837  -4.5737
    -4.5695  -4.4519  -4.4142  -4.4055  -4.4034  -4.4008  -4.3892  -4.3890
    -4.3865  -4.3834  -4.3807  -4.3793  -4.3761  -4.1913  -4.1865  -4.1797
    -4.0780  -4.0302  -4.0188  -4.0151  -4.0144  -4.0128  -4.0099  -3.7321
    -3.7320  -3.7284  -3.7251  -3.7231  -3.7201  -3.6013  -3.5647  -3.5629
    -3.5598  -3.5398  -3.5382  -3.4889  -3.4767  -3.4703  -3.4100  -3.4085
    -3.4048  -3.4015  -3.3996  -3.3976  -3.3793  -3.3744  -3.3720  -3.3711
    -3.3682  -3.3671  -3.3622  -3.3614  -3.2371  -3.1722  -3.1676  -3.1658
    -3.1646  -3.1570  -3.0741  -3.0227  -3.0174  -2.9953  -2.9006  -2.9003
    -2.8987  -2.7584  -2.7516  -2.7440  -2.7415  -2.7372  -2.7368  -2.7348
    -2.7167  -2.7157  -2.5295  -2.5295  -2.5273  -2.5233  -2.5231  -2.4358
    -2.2610  -2.2599  -2.2571  -2.1668  -2.1666  -2.1652  -1.7106  -1.6547
    -1.6416  -1.6374  -1.6339  -1.6212  -1.4137  -0.2484  -0.2444  -0.2442
    -0.2413  -0.2398  -0.2392  -0.0629   0.0368   0.0415   0.0420   0.8950
     0.8991

          k = 0.0000-0.0501 0.0000 (100960 PWs)   bands (ev):

  -106.1225-106.0358-106.0259-106.0240-106.0239-106.0221-106.0066-106.0039
  -106.0022-106.0016-106.0006-105.9999-105.9982-105.9981-105.9967-105.9967
  -105.9963-105.9956-105.9948-105.9946-105.9941-105.9939-105.9933-105.9930
  -105.9920-105.9916-105.9914-105.9902-105.9891-105.9890-105.9886-105.9874
   -57.4983 -57.4941 -57.4489 -57.4422 -57.4405 -57.4342 -57.4331 -57.4321
   -57.4277 -57.4257 -57.4233 -57.4222 -57.4209 -57.4148 -57.4117 -57.4088
   -57.4087 -57.4038 -57.4010 -57.3991 -57.3950 -57.3948 -57.3916 -57.3911
   -57.3865 -57.3785 -57.3720 -57.3662 -57.3616 -57.3614 -57.3476 -57.3464
   -57.3442 -57.3425 -57.3405 -57.3386 -57.3349 -57.3336 -57.3281 -57.3270
   -57.3254 -57.3253 -57.3247 -57.3239 -57.3200 -57.3196 -57.3191 -57.3136
   -57.3120 -57.3107 -57.3085 -57.3081 -57.3055 -57.3040 -57.3008 -57.3001
   -57.3000 -57.2985 -57.2934 -57.2922 -57.2875 -57.2870 -57.2868 -57.2776
   -57.2725 -57.2211 -57.2179 -57.2124 -57.2068 -57.1990 -57.1927 -57.1873
   -57.1857 -57.1836 -57.1785 -57.1750 -57.1710 -57.1700 -57.1677 -57.1665
   -57.1611 -57.1522 -57.1514 -57.1447 -57.1419 -57.1380 -57.1371 -57.1352
   -57.1338 -57.1327 -57.1326 -57.1311 -57.1300 -57.1281 -57.1273 -57.1253
   -24.1296 -22.5490 -21.9451 -16.0788 -14.5451 -12.9984 -10.8829  -8.9984
    -8.5532  -8.5052  -8.4145  -8.2789  -8.0092  -7.6756  -7.6733  -7.2713
    -7.1680  -7.1505  -7.1319  -6.9305  -6.9266  -6.7727  -6.7325  -6.7314
    -6.7299  -6.7228  -6.6530  -6.6463  -6.5840  -6.5795  -6.5758  -6.5756
    -6.4569  -6.4553  -6.4501  -6.4497  -6.4142  -6.4057  -6.2210  -6.1791
    -6.1329  -6.1318  -6.1255  -6.1253  -6.0487  -6.0306  -6.0295  -6.0097
    -5.9971  -5.9827  -5.9478  -5.9451  -5.8043  -5.7999  -5.7469  -5.7453
    -5.7400  -5.7275  -5.7191  -5.7178  -5.4112  -5.3984  -5.2903  -5.2609
    -5.2430  -5.1433  -5.1165  -5.1160  -5.1038  -5.0926  -5.0842  -5.0828
    -5.0649  -5.0518  -5.0137  -5.0066  -4.9935  -4.9799  -4.9765  -4.9760
    -4.9655  -4.9646  -4.9618  -4.8753  -4.8569  -4.8556  -4.8390  -4.8367
    -4.8300  -4.7748  -4.7698  -4.7588  -4.7545  -4.6089  -4.5717  -4.5636
    -4.5624  -4.5577  -4.5533  -4.5518  -4.4673  -4.4545  -4.4382  -4.4370
    -4.4096  -4.4034  -4.4029  -4.3969  -4.2825  -4.2765  -4.2150  -4.2120
    -4.1874  -4.1125  -4.1092  -4.1061  -4.1060  -4.0977  -4.0859  -4.0478
    -4.0284  -3.9228  -3.9092  -3.8372  -3.8293  -3.7811  -3.7734  -3.7716
    -3.7678  -3.7563  -3.7481  -3.6429  -3.6302  -3.4978  -3.4840  -3.4817
    -3.4733  -3.4680  -3.4563  -3.4472  -3.4431  -3.4243  -3.4036  -3.3970
    -3.3826  -3.3756  -3.3715  -3.2631  -3.2466  -3.2239  -3.2117  -3.1148
    -3.1018  -3.0916  -3.0888  -3.0775  -3.0688  -3.0673  -3.0663  -3.0381
    -2.9739  -2.9699  -2.9668  -2.9591  -2.9589  -2.9535  -2.9498  -2.8797
    -2.8428  -2.8420  -2.7908  -2.7734  -2.7594  -2.7557  -2.7553  -2.7206
    -2.7142  -2.7058  -2.6702  -2.6663  -2.6294  -2.6161  -2.6086  -2.6008
    -2.5079  -2.5006  -2.4972  -2.4908  -2.4174  -2.3375  -2.3348  -2.3300
    -2.3300  -2.2795  -1.8380  -1.7612  -1.6914  -0.6696  -0.6662  -0.6491
    -0.5620  -0.2560  -0.2455  -0.2396  -0.2372  -0.2279  -0.1728   0.8603
     0.9149

          k = 0.0433-0.0250 0.0000 (100960 PWs)   bands (ev):

  -106.1225-106.0358-106.0259-106.0240-106.0239-106.0221-106.0065-106.0043
  -106.0017-106.0013-106.0009-106.0000-105.9985-105.9977-105.9974-105.9966
  -105.9958-105.9954-105.9951-105.9944-105.9942-105.9936-105.9935-105.9931
  -105.9920-105.9916-105.9914-105.9902-105.9892-105.9889-105.9887-105.9874
   -57.4993 -57.4932 -57.4498 -57.4395 -57.4385 -57.4346 -57.4339 -57.4321
   -57.4267 -57.4239 -57.4235 -57.4231 -57.4213 -57.4155 -57.4137 -57.4105
   -57.4089 -57.4039 -57.4016 -57.4004 -57.3954 -57.3948 -57.3924 -57.3911
[...]
    -3.0065  -3.0048  -2.9995  -2.9994  -2.9645  -2.8753  -2.8752  -2.8484
    -2.8341  -2.7360  -2.7065  -2.7058  -2.6992  -2.6988  -2.6546  -2.6495
    -2.6480  -2.5702  -2.5694  -2.5094  -2.5089  -2.4639  -2.4612  -2.4404
    -2.4387  -2.4225  -2.3268  -2.2735  -2.2732  -2.2298  -1.9951  -1.7218
    -1.7100  -1.6383  -1.3314  -1.3309  -1.2040  -1.1974  -1.1890  -0.9656
    -0.2243  -0.2240  -0.1380  -0.1379   0.2206   0.4583   0.4651   0.9697
     1.0098

          k = 0.0433-0.0250 0.0000 (100960 PWs)   bands (ev):

  -105.9812-105.9792-105.9779-105.9775-105.9759-105.9751-105.9749-105.9742
  -105.9738-105.9729-105.9727-105.9723-105.9720-105.9716-105.9713-105.9710
  -105.9707-105.9702-105.9699-105.9697-105.9692-105.9692-105.9692-105.9689
  -105.9688-105.9686-105.9682-105.9678-105.9674-105.9665-105.9623-105.9576
   -57.4030 -57.4017 -57.4006 -57.4000 -57.3910 -57.3894 -57.3885 -57.3875
   -57.3865 -57.3855 -57.3852 -57.3847 -57.3764 -57.3747 -57.3712 -57.3706
   -57.3622 -57.3620 -57.3614 -57.3611 -57.3528 -57.3527 -57.3520 -57.3519
   -57.3415 -57.3408 -57.3204 -57.3198 -57.3078 -57.3072 -57.3056 -57.3043
   -57.3034 -57.3027 -57.3006 -57.3001 -57.2871 -57.2870 -57.2864 -57.2862
   -57.2853 -57.2831 -57.2815 -57.2804 -57.2795 -57.2786 -57.2705 -57.2689
   -57.2669 -57.2665 -57.2663 -57.2658 -57.2635 -57.2625 -57.2607 -57.2594
   -57.2583 -57.2580 -57.2518 -57.2497 -57.2464 -57.2455 -57.2334 -57.2326
   -57.2313 -57.2311 -57.2215 -57.2208 -57.2028 -57.2024 -57.2018 -57.2009
   -57.1969 -57.1945 -57.1860 -57.1835 -57.1830 -57.1817 -57.1707 -57.1698
   -57.1562 -57.1556 -57.1500 -57.1479 -57.1477 -57.1462 -57.1437 -57.1418
   -57.1404 -57.1400 -57.1386 -57.1381 -57.1351 -57.1345 -57.1327 -57.1300
   -23.5539 -21.8902 -21.2562 -15.8924 -14.5161 -12.9264 -10.6326  -8.9456
    -8.5931  -8.5904  -8.1325  -7.9879  -7.7679  -7.7670  -7.6418  -7.1512
    -7.1489  -6.9819  -6.9808  -6.9759  -6.8572  -6.8228  -6.8226  -6.8222
    -6.8210  -6.6625  -6.6611  -6.6266  -6.6265  -6.6261  -6.6257  -6.6059
    -6.4801  -6.4798  -6.4790  -6.4786  -6.4216  -6.4209  -6.1473  -6.1472
    -6.1465  -6.1465  -6.1333  -6.1327  -6.1306  -6.1302  -6.0874  -6.0853
    -6.0492  -6.0487  -5.9851  -5.8956  -5.8949  -5.8137  -5.8136  -5.8130
    -5.8129  -5.7991  -5.7985  -5.5859  -5.4143  -5.4140  -5.2698  -5.2692
    -5.1080  -5.1059  -5.0789  -5.0640  -5.0630  -5.0613  -5.0604  -5.0499
    -5.0480  -5.0045  -5.0028  -5.0004  -4.9557  -4.9552  -4.9551  -4.9535
    -4.9532  -4.9527  -4.8935  -4.8930  -4.8284  -4.8265  -4.7974  -4.7965
    -4.7892  -4.7891  -4.7881  -4.7871  -4.7510  -4.5553  -4.5550  -4.5545
    -4.5536  -4.5529  -4.5512  -4.5084  -4.5066  -4.5062  -4.5052  -4.4571
    -4.4551  -4.4116  -4.4113  -4.4037  -4.2676  -4.2673  -4.2082  -4.2056
    -4.1823  -4.1819  -4.1280  -4.1278  -4.1271  -4.1270  -4.0938  -4.0928
    -3.9316  -3.9291  -3.8195  -3.8189  -3.7708  -3.7698  -3.7683  -3.7674
    -3.7646  -3.7616  -3.6795  -3.5936  -3.5920  -3.4809  -3.4787  -3.4683
    -3.4679  -3.4674  -3.4660  -3.3542  -3.3517  -3.3493  -3.3489  -3.3443
    -3.3437  -3.3419  -3.3408  -3.1997  -3.1979  -3.1615  -3.1588  -3.0509
    -3.0506  -3.0502  -3.0494  -2.9984  -2.9974  -2.9960  -2.9953  -2.9211
    -2.9194  -2.8998  -2.8980  -2.8967  -2.8957  -2.8792  -2.8778  -2.7784
    -2.7772  -2.7274  -2.7262  -2.6945  -2.6941  -2.6927  -2.6923  -2.6502
    -2.6475  -2.6285  -2.6276  -2.5601  -2.5585  -2.5397  -2.5375  -2.4545
    -2.4395  -2.4373  -2.4348  -2.4324  -2.3892  -2.3655  -2.2869  -2.2867
    -2.2864  -2.2861  -1.7656  -1.7542  -1.6390  -0.5481  -0.5462  -0.5425
    -0.5350  -0.2264  -0.2259  -0.2235  -0.2228  -0.1085  -0.1046   0.8945
     0.9213

          k =-0.0433-0.0250 0.0000 (100960 PWs)   bands (ev):

  -105.9811-105.9794-105.9776-105.9774-105.9761-105.9750-105.9749-105.9742
  -105.9739-105.9729-105.9727-105.9723-105.9720-105.9716-105.9713-105.9707
  -105.9707-105.9703-105.9702-105.9697-105.9693-105.9692-105.9690-105.9690
  -105.9687-105.9685-105.9682-105.9679-105.9674-105.9665-105.9623-105.9576
   -57.4027 -57.4016 -57.4007 -57.4001 -57.3909 -57.3896 -57.3883 -57.3875
   -57.3867 -57.3857 -57.3852 -57.3847 -57.3763 -57.3750 -57.3711 -57.3705
   -57.3621 -57.3620 -57.3614 -57.3611 -57.3528 -57.3527 -57.3520 -57.3519
   -57.3415 -57.3409 -57.3204 -57.3198 -57.3078 -57.3072 -57.3054 -57.3043
   -57.3035 -57.3029 -57.3005 -57.3001 -57.2871 -57.2870 -57.2865 -57.2863
   -57.2852 -57.2832 -57.2813 -57.2804 -57.2796 -57.2788 -57.2704 -57.2691
   -57.2668 -57.2665 -57.2663 -57.2658 -57.2635 -57.2626 -57.2605 -57.2593
   -57.2584 -57.2581 -57.2517 -57.2498 -57.2463 -57.2455 -57.2333 -57.2325
   -57.2314 -57.2313 -57.2215 -57.2208 -57.2029 -57.2024 -57.2020 -57.2009
   -57.1967 -57.1946 -57.1856 -57.1835 -57.1832 -57.1819 -57.1707 -57.1698
   -57.1562 -57.1556 -57.1497 -57.1480 -57.1477 -57.1465 -57.1435 -57.1421
   -57.1403 -57.1399 -57.1386 -57.1381 -57.1352 -57.1345 -57.1327 -57.1300
   -23.5539 -21.8902 -21.2562 -15.8924 -14.5161 -12.9264 -10.6325  -8.9456
    -8.5929  -8.5905  -8.1325  -7.9879  -7.7680  -7.7670  -7.6417  -7.1511
    -7.1491  -6.9821  -6.9807  -6.9757  -6.8574  -6.8228  -6.8226  -6.8222
    -6.8209  -6.6625  -6.6612  -6.6266  -6.6264  -6.6262  -6.6258  -6.6058
    -6.4800  -6.4798  -6.4791  -6.4787  -6.4216  -6.4209  -6.1473  -6.1472
    -6.1466  -6.1465  -6.1330  -6.1326  -6.1308  -6.1304  -6.0873  -6.0855
    -6.0492  -6.0487  -5.9851  -5.8956  -5.8949  -5.8138  -5.8136  -5.8130
    -5.8129  -5.7990  -5.7985  -5.5858  -5.4142  -5.4140  -5.2698  -5.2692
    -5.1080  -5.1060  -5.0791  -5.0638  -5.0628  -5.0615  -5.0606  -5.0493
    -5.0484  -5.0044  -5.0029  -5.0003  -4.9556  -4.9551  -4.9550  -4.9536
    -4.9533  -4.9528  -4.8935  -4.8931  -4.8283  -4.8266  -4.7974  -4.7964
    -4.7892  -4.7890  -4.7880  -4.7874  -4.7509  -4.5552  -4.5549  -4.5545
    -4.5538  -4.5528  -4.5513  -4.5082  -4.5066  -4.5062  -4.5054  -4.4570
    -4.4552  -4.4118  -4.4113  -4.4034  -4.2676  -4.2672  -4.2080  -4.2058
    -4.1823  -4.1819  -4.1280  -4.1278  -4.1272  -4.1270  -4.0938  -4.0929
    -3.9312  -3.9294  -3.8195  -3.8189  -3.7709  -3.7695  -3.7679  -3.7676
    -3.7649  -3.7623  -3.6790  -3.5935  -3.5921  -3.4808  -3.4788  -3.4683
    -3.4678  -3.4673  -3.4662  -3.3541  -3.3522  -3.3491  -3.3488  -3.3441
    -3.3437  -3.3423  -3.3405  -3.1997  -3.1980  -3.1616  -3.1588  -3.0509
    -3.0506  -3.0502  -3.0495  -2.9981  -2.9973  -2.9961  -2.9955  -2.9210
    -2.9195  -2.8995  -2.8979  -2.8969  -2.8959  -2.8791  -2.8778  -2.7784
    -2.7772  -2.7274  -2.7262  -2.6944  -2.6941  -2.6928  -2.6925  -2.6500
    -2.6477  -2.6284  -2.6277  -2.5599  -2.5586  -2.5395  -2.5377  -2.4553
    -2.4392  -2.4372  -2.4350  -2.4322  -2.3884  -2.3657  -2.2869  -2.2867
    -2.2864  -2.2861  -1.7655  -1.7544  -1.6389  -0.5479  -0.5460  -0.5429
    -0.5351  -0.2261  -0.2257  -0.2236  -0.2231  -0.1085  -0.1046   0.8967
     0.9190

          k =-0.0217 0.0375 0.0000 (101030 PWs)   bands (ev):

  -105.9811-105.9794-105.9781-105.9767-105.9760-105.9755-105.9749-105.9742
  -105.9735-105.9732-105.9727-105.9725-105.9718-105.9715-105.9712-105.9709
  -105.9706-105.9703-105.9700-105.9698-105.9695-105.9692-105.9689-105.9689
  -105.9687-105.9685-105.9682-105.9679-105.9674-105.9665-105.9623-105.9576
   -57.4069 -57.3994 -57.3989 -57.3966 -57.3959 -57.3920 -57.3863 -57.3852
   -57.3848 -57.3842 -57.3823 -57.3816 -57.3769 -57.3761 -57.3743 -57.3738
   -57.3723 -57.3644 -57.3632 -57.3620 -57.3524 -57.3520 -57.3507 -57.3345
   -57.3340 -57.3326 -57.3273 -57.3272 -57.3221 -57.3214 -57.3065 -57.2997
   -57.2991 -57.2978 -57.2961 -57.2914 -57.2908 -57.2878 -57.2854 -57.2853
   -57.2843 -57.2833 -57.2821 -57.2764 -57.2759 -57.2752 -57.2749 -57.2741
   -57.2729 -57.2702 -57.2662 -57.2660 -57.2628 -57.2609 -57.2598 -57.2569
   -57.2563 -57.2557 -57.2547 -57.2537 -57.2484 -57.2376 -57.2371 -57.2323
   -57.2313 -57.2288 -57.2272 -57.2123 -57.2119 -57.2028 -57.2008 -57.1988
   -57.1930 -57.1917 -57.1902 -57.1891 -57.1802 -57.1773 -57.1756 -57.1667
   -57.1585 -57.1527 -57.1513 -57.1496 -57.1459 -57.1449 -57.1442 -57.1425
   -57.1412 -57.1401 -57.1386 -57.1369 -57.1356 -57.1345 -57.1327 -57.1300
   -23.5539 -21.8902 -21.2562 -15.8924 -14.5161 -12.9264 -10.6326  -8.9456
    -8.7054  -8.2646  -8.2623  -8.1322  -7.9879  -7.6434  -7.2527  -7.2187
    -7.2183  -6.9760  -6.9477  -6.9468  -6.8726  -6.8724  -6.8604  -6.8545
    -6.8503  -6.7447  -6.6679  -6.6671  -6.6526  -6.6525  -6.6063  -6.5989
    -6.5557  -6.4889  -6.4886  -6.3292  -6.3280  -6.2997  -6.2989  -6.1945
    -6.1943  -6.1749  -6.1474  -6.1474  -6.0802  -6.0801  -6.0213  -6.0211
    -6.0069  -6.0057  -5.9850  -5.9661  -5.9652  -5.9595  -5.8164  -5.7279
    -5.7252  -5.7089  -5.5993  -5.5946  -5.5814  -5.3103  -5.3101  -5.2630
    -5.2291  -5.2287  -5.1154  -5.1133  -5.0870  -5.0849  -5.0834  -5.0810
    -5.0694  -5.0060  -4.9989  -4.9974  -4.9830  -4.9809  -4.9710  -4.9693
    -4.9680  -4.9383  -4.9379  -4.9024  -4.8978  -4.8766  -4.8755  -4.8298
    -4.7523  -4.7460  -4.7361  -4.7356  -4.6868  -4.6132  -4.5962  -4.5954
    -4.5311  -4.5118  -4.4841  -4.4753  -4.4739  -4.4309  -4.4052  -4.3453
    -4.3446  -4.3096  -4.3095  -4.2875  -4.2870  -4.2632  -4.2625  -4.2263
    -4.2001  -4.1993  -4.1198  -4.1195  -4.1114  -4.1109  -4.0782  -4.0764
    -3.9508  -3.9497  -3.8309  -3.8201  -3.8182  -3.8116  -3.8102  -3.7150
    -3.7118  -3.6925  -3.6891  -3.6753  -3.6237  -3.6084  -3.6071  -3.4952
    -3.4188  -3.4072  -3.4058  -3.3540  -3.3482  -3.3478  -3.3011  -3.2996
    -3.2990  -3.2977  -3.2806  -3.2212  -3.2195  -3.2179  -3.2152  -3.1876
    -3.1862  -3.1264  -3.0171  -3.0091  -2.9933  -2.9912  -2.9793  -2.9782
    -2.9471  -2.9470  -2.9189  -2.9031  -2.9027  -2.8732  -2.8712  -2.7958
    -2.7956  -2.7793  -2.7791  -2.7514  -2.7112  -2.7100  -2.7077  -2.7071
    -2.6350  -2.6336  -2.5930  -2.5878  -2.5861  -2.5456  -2.4996  -2.4988
    -2.4760  -2.4272  -2.4239  -2.4140  -2.4017  -2.4002  -2.2471  -2.1257
    -2.1160  -1.6407  -1.4906  -1.4905  -1.3997  -1.3989  -1.2709  -1.2667
    -0.5643  -0.4413  -0.4329   0.4966   0.4995   0.6296   0.6319   0.7009
     1.0351

          k = 0.0433 0.0000 0.0000 (101030 PWs)   bands (ev):

  -105.9812-105.9792-105.9783-105.9768-105.9762-105.9752-105.9748-105.9742
  -105.9738-105.9729-105.9727-105.9725-105.9721-105.9715-105.9712-105.9709
  -105.9706-105.9703-105.9700-105.9697-105.9694-105.9692-105.9691-105.9689
  -105.9687-105.9685-105.9683-105.9678-105.9674-105.9665-105.9623-105.9576
   -57.4069 -57.3997 -57.3990 -57.3962 -57.3960 -57.3920 -57.3860 -57.3855
   -57.3846 -57.3843 -57.3819 -57.3815 -57.3769 -57.3763 -57.3743 -57.3733
   -57.3729 -57.3646 -57.3630 -57.3621 -57.3524 -57.3520 -57.3506 -57.3347
   -57.3335 -57.3329 -57.3277 -57.3269 -57.3218 -57.3216 -57.3066 -57.2994
   -57.2993 -57.2972 -57.2968 -57.2913 -57.2908 -57.2881 -57.2854 -57.2852
   -57.2839 -57.2838 -57.2820 -57.2764 -57.2760 -57.2755 -57.2744 -57.2743
   -57.2728 -57.2700 -57.2666 -57.2659 -57.2628 -57.2604 -57.2601 -57.2568
   -57.2563 -57.2559 -57.2546 -57.2539 -57.2484 -57.2375 -57.2373 -57.2324
   -57.2313 -57.2282 -57.2278 -57.2129 -57.2114 -57.2028 -57.1998 -57.1996
   -57.1928 -57.1921 -57.1907 -57.1885 -57.1805 -57.1767 -57.1760 -57.1667
   -57.1586 -57.1524 -57.1517 -57.1494 -57.1463 -57.1446 -57.1439 -57.1428
   -57.1411 -57.1400 -57.1384 -57.1373 -57.1355 -57.1344 -57.1327 -57.1300
   -23.5539 -21.8902 -21.2562 -15.8924 -14.5161 -12.9264 -10.6326  -8.9456
    -8.7054  -8.2639  -8.2631  -8.1321  -7.9879  -7.6434  -7.2527  -7.2193
    -7.2177  -6.9762  -6.9473  -6.9472  -6.8728  -6.8722  -6.8602  -6.8544
    -6.8508  -6.7445  -6.6677  -6.6674  -6.6528  -6.6524  -6.6064  -6.5986
    -6.5558  -6.4888  -6.4887  -6.3288  -6.3285  -6.2993  -6.2993  -6.1945
    -6.1943  -6.1748  -6.1477  -6.1472  -6.0808  -6.0795  -6.0212  -6.0211
    -6.0063  -6.0060  -5.9853  -5.9659  -5.9654  -5.9595  -5.8164  -5.7279
    -5.7253  -5.7089  -5.5979  -5.5949  -5.5824  -5.3109  -5.3096  -5.2629
    -5.2290  -5.2288  -5.1155  -5.1131  -5.0876  -5.0852  -5.0833  -5.0800
    -5.0695  -5.0052  -4.9998  -4.9971  -4.9827  -4.9817  -4.9714  -4.9685
    -4.9684  -4.9383  -4.9379  -4.9025  -4.8979  -4.8762  -4.8757  -4.8298
    -4.7518  -4.7468  -4.7360  -4.7357  -4.6868  -4.6132  -4.5962  -4.5951
    -4.5311  -4.5117  -4.4842  -4.4748  -4.4743  -4.4309  -4.4055  -4.3451
    -4.3448  -4.3100  -4.3092  -4.2873  -4.2871  -4.2629  -4.2628  -4.2262
    -4.1998  -4.1995  -4.1203  -4.1192  -4.1112  -4.1111  -4.0775  -4.0770
    -3.9506  -3.9501  -3.8312  -3.8195  -3.8189  -3.8108  -3.8102  -3.7187
    -3.7117  -3.6940  -3.6892  -3.6687  -3.6249  -3.6082  -3.6074  -3.4951
    -3.4187  -3.4084  -3.4053  -3.3540  -3.3485  -3.3476  -3.3010  -3.2994
    -3.2989  -3.2972  -3.2806  -3.2206  -3.2202  -3.2169  -3.2164  -3.1871
    -3.1868  -3.1264  -3.0172  -3.0090  -2.9925  -2.9921  -2.9790  -2.9787
    -2.9473  -2.9468  -2.9189  -2.9038  -2.9020  -2.8723  -2.8720  -2.7964
    -2.7951  -2.7797  -2.7787  -2.7515  -2.7110  -2.7098  -2.7075  -2.7072
    -2.6343  -2.6341  -2.5933  -2.5874  -2.5863  -2.5456  -2.5001  -2.4986
    -2.4736  -2.4270  -2.4242  -2.4156  -2.4016  -2.4013  -2.2472  -2.1238
    -2.1176  -1.6405  -1.4910  -1.4902  -1.3995  -1.3990  -1.2742  -1.2630
    -0.5646  -0.4375  -0.4369   0.4968   0.4993   0.6270   0.6357   0.6996
     1.0351

     the Fermi energy is    -0.9321 ev

!    total energy              =   -8954.35777649 Ry
     Harris-Foulkes estimate   =   -8954.35777636 Ry
     estimated scf accuracy    <       0.00000025 Ry

     The total energy is the sum of the following terms:

     one-electron contribution =  -81786.98259830 Ry
     hartree contribution      =   40725.65964865 Ry
     xc contribution           =    -856.20370794 Ry
     ewald contribution        =   32963.18278263 Ry
     smearing contrib. (-TS)   =      -0.01390154 Ry

     convergence has been achieved in   9 iterations

     Forces acting on atoms (Ry/au):


     negative rho (up, down):  2.982E-03 0.000E+00
     atom    1 type  1   force =     0.00000102    0.00000995   -0.02359955
     atom    2 type  1   force =     0.00002677    0.00000621    0.02385623
     atom    3 type  1   force =    -0.00001794   -0.00002849   -0.02398849
     atom    4 type  1   force =     0.00000078   -0.00002231    0.02391427
     atom    5 type  1   force =    -0.00000353    0.00001711   -0.02399383
     atom    6 type  1   force =    -0.00002574   -0.00000246    0.02398406
     atom    7 type  1   force =    -0.00002924   -0.00003457   -0.02374662
     atom    8 type  1   force =    -0.00001633    0.00001076    0.02389802
     atom    9 type  1   force =    -0.00003168    0.00003970   -0.02396569
     atom   10 type  1   force =    -0.00003499   -0.00016758    0.02381837
     atom   11 type  1   force =     0.00001878   -0.00003265   -0.02396823
     atom   12 type  1   force =    -0.00010611    0.00003890    0.02382527
     atom   13 type  1   force =     0.00000208   -0.00000052   -0.02399966
     atom   14 type  1   force =     0.00002840   -0.00000386    0.02397966
     atom   15 type  1   force =    -0.00000578   -0.00001640   -0.02401269
     atom   16 type  1   force =     0.00000016    0.00004705    0.02405849
     atom   17 type  1   force =     0.00000150    0.00001661   -0.02411718
     atom   18 type  1   force =     0.00002358   -0.00014733    0.02385076
     atom   19 type  1   force =    -0.00002812   -0.00002144   -0.02373434
     atom   20 type  1   force =     0.00001593    0.00004314    0.02407921
     atom   21 type  1   force =     0.00000702    0.00001669   -0.02396784
     atom   22 type  1   force =    -0.00003768    0.00001652    0.02382683
     atom   23 type  1   force =     0.00000685   -0.00001839   -0.02402000
     atom   24 type  1   force =     0.00001660    0.00000774    0.02389723
     atom   25 type  1   force =     0.00002820    0.00003624   -0.02398040
     atom   26 type  1   force =    -0.00002140    0.00000455    0.02386718
     atom   27 type  1   force =     0.00002662   -0.00002733   -0.02376608
     atom   28 type  1   force =     0.00009094    0.00003567    0.02384933
     atom   29 type  1   force =    -0.00000583    0.00006050   -0.02363752
     atom   30 type  1   force =     0.00003334    0.00001148    0.02385514
     atom   31 type  1   force =     0.00002822   -0.00003349   -0.02375198
     atom   32 type  1   force =     0.00000064   -0.00001602    0.02411434
     atom   33 type  2   force =     0.00017011    0.00002637   -0.00068095
     atom   34 type  2   force =     0.00003809    0.00041799    0.00045800
     atom   35 type  2   force =    -0.00011081   -0.00018060    0.00013593
     atom   36 type  3   force =    -0.00010205   -0.00008545   -0.00000165
     atom   37 type  3   force =     0.00008671    0.00027849   -0.00029731
     atom   38 type  3   force =     0.00019020   -0.00049725    0.00045013
     atom   39 type  3   force =    -0.00012055   -0.00063489    0.00013517
     atom   40 type  3   force =     0.00022564    0.00008213    0.00012378
     atom   41 type  4   force =    -0.00014386    0.00003688    0.00019301
     atom   42 type  4   force =     0.00017811    0.00018096    0.00018546
     atom   43 type  4   force =    -0.00016630   -0.00015880   -0.00025321
     atom   44 type  4   force =    -0.00029978   -0.00005532   -0.00021236
     atom   45 type  4   force =    -0.00008799   -0.00012407   -0.00017929
     atom   46 type  4   force =     0.00001696   -0.00009749   -0.00024132
     atom   47 type  4   force =     0.00005426    0.00114315    0.00019131
     atom   48 type  4   force =     0.00007822   -0.00017810   -0.00043103

     Total force =     0.135239     Total SCF correction =     0.002146
 !ASE

     Writing output data file calc.save
 
     init_run     :     79.34s CPU     90.51s WALL (       1 calls)
     electrons    : 109055.85s CPU 110703.12s WALL (      26 calls)
     update_pot   :    130.53s CPU    136.46s WALL (      25 calls)
     forces       :   1098.00s CPU   1103.62s WALL (      26 calls)

     Called by init_run:
     wfcinit      :     71.94s CPU     82.92s WALL (       1 calls)
     potinit      :      2.43s CPU      2.51s WALL (       1 calls)

     Called by electrons:
     c_bands      :  86132.34s CPU  86992.53s WALL (     382 calls)
     sum_band     :  15244.83s CPU  15290.92s WALL (     382 calls)
     v_of_rho     :    201.24s CPU    219.51s WALL (     407 calls)
     newd         :   1041.33s CPU   1060.88s WALL (     407 calls)
     mix_rho      :   6482.60s CPU   7107.24s WALL (     382 calls)

     Called by c_bands:
     init_us_2    :    664.54s CPU    666.18s WALL (    7910 calls)
     cegterg      :  81248.34s CPU  82105.20s WALL (    3820 calls)

     Called by *egterg:
     h_psi        :  57244.58s CPU  57368.22s WALL (   15948 calls)
     s_psi        :   6002.19s CPU   6007.19s WALL (   15948 calls)
     g_psi        :     85.66s CPU     85.82s WALL (   12118 calls)
     cdiaghg      :   5215.91s CPU   5216.25s WALL (   15678 calls)

     Called by h_psi:
     add_vuspsi   :   6173.99s CPU   6178.64s WALL (   15948 calls)

     General routines
     calbec       :   8859.68s CPU   8874.26s WALL (   20028 calls)
     fft          :    290.90s CPU    312.07s WALL (    6723 calls)
     ffts         :   3109.87s CPU   3726.40s WALL (  389626 calls)
     fftw         :  42224.45s CPU  42327.30s WALL ( 7231908 calls)
     interpolate  :     41.84s CPU     43.87s WALL (     789 calls)
     davcio       :      0.02s CPU      2.96s WALL (      10 calls)
 
     Parallel routines
     fft_scatter  :  13047.78s CPU  13517.76s WALL ( 7628257 calls)
 
     PWSCF        :     1d    6h40m CPU        1d    7h 9m WALL

 
   This run was terminated on:   1:14:18   8Apr2019            

=------------------------------------------------------------------------------=
   JOB DONE.
=------------------------------------------------------------------------------=
