  python dir          : /gpfs/pace1/project/chbe-medford/medford-share/gits/frozen/ben_espresso_8_24_2017/espresso
  espresso dir        : /nv/hp22/amedford6/medford-shared/builds/espresso/5.1.r11289-pybeef/intel-16.0+mvapich2-2.2+mkl-11.3/espresso-5.1.r11289-pybeef/bin
  pseudo dir          : /gpfs/pace1/project/chbe-medford/medford-share/data/pseudos/SSSP_eff_PBE
  ase-espresso py git : GITVERSION



     Program PWSCF v.5.1rc2 starts on  6Apr2019 at 22:24:22 

     This program is part of the open-source Quantum ESPRESSO suite
     for quantum simulation of materials; please cite
         "P. Giannozzi et al., J. Phys.:Condens. Matter 21 395502 (2009);
          URL http://www.quantum-espresso.org", 
     in publications or presentations arising from this work. More details at
     http://www.quantum-espresso.org/quote

     Parallel version (MPI), running on    12 processors
     R & G space division:  proc/nbgrp/npool/nimage =      12
     Reading input from pw.inp
     Message from routine read_cards :
     DEPRECATED: no units specified in CELL_PARAMETERS card

     Current dimensions of program PWSCF are:
     Max number of different atomic species (ntypx) = 10
     Max number of k-points (npk) =  40000
     Max angular momentum in pseudopotentials (lmaxx) =  3

     IMPORTANT: XC functional enforced from input :
     Exchange-correlation      = PBE ( 1  4  3  4 0)
     Any further DFT definition will be discarded
     Please, verify this is what you really want


     Subspace diagonalization in iterative solution of the eigenvalue problem:
     a serial algorithm will be used

 
     Parallelization info
     --------------------
     sticks:   dense  smooth     PW     G-vecs:    dense   smooth      PW
     Min         835     410    107               180058    61552    8337
     Max         837     411    108               180063    61575    8352
     Sum       10033    4927   1285              2160719   738771  100077
 


     bravais-lattice index     =            0
     lattice parameter (alat)  =       1.8897  a.u.
     unit-cell volume          =   21271.9317 (a.u.)^3
     number of atoms/cell      =           56
     number of atomic types    =            4
     number of electrons       =       594.00
     number of Kohn-Sham states=          307
     kinetic-energy cutoff     =      40.4243  Ry
     charge density cutoff     =     330.7439  Ry
     convergence threshold     =      3.7E-07
     mixing beta               =       0.0750
     number of iterations used =            8  local-TF  mixing
     Exchange-correlation      = PBE ( 1  4  3  4 0)
     nstep                     =           50


     celldm(1)=   1.889726  celldm(2)=   0.000000  celldm(3)=   0.000000
     celldm(4)=   0.000000  celldm(5)=   0.000000  celldm(6)=   0.000000

     crystal axes: (cart. coord. in units of alat)
               a(1) = (  11.099314   0.000000   0.000000 )  
               a(2) = (  -5.549657   9.612288   0.000000 )  
               a(3) = (   0.000000   0.000000  29.545235 )  

     reciprocal axes: (cart. coord. in units 2 pi/alat)
               b(1) = (  0.090096  0.052017  0.000000 )  
               b(2) = (  0.000000  0.104034  0.000000 )  
               b(3) = (  0.000000  0.000000  0.033846 )  


     PseudoPot. # 1 for Pt read from file:
     /gpfs/pace1/project/chbe-medford/medford-share/data/pseudos/SSSP_eff_PBE/Pt.UPF
     MD5 check sum: f09d6de1a584b5a045c4fc126da2d0c4
     Pseudo is Ultrasoft + core correction, Zval = 16.0
     Generated by new atomic code, or converted to UPF format
     Using radial grid of  985 points,  6 beta functions with: 
                l(1) =   0
                l(2) =   0
                l(3) =   1
                l(4) =   1
                l(5) =   2
                l(6) =   2
     Q(r) pseudized with  8 coefficients,  rinner =    1.300   1.300   1.300
                                                       1.300   1.300

     PseudoPot. # 2 for O  read from file:
     /gpfs/pace1/project/chbe-medford/medford-share/data/pseudos/SSSP_eff_PBE/O.UPF
     MD5 check sum: 734c27235a0248c51dbae37a1fbe46ec
     Pseudo is Ultrasoft + core correction, Zval =  6.0
     Generated by new atomic code, or converted to UPF format
     Using radial grid of  737 points,  5 beta functions with: 
                l(1) =   0
                l(2) =   0
                l(3) =   1
                l(4) =   1
                l(5) =   2
     Q(r) pseudized with  8 coefficients,  rinner =    0.900   0.900   0.900
                                                       0.900   0.900

     PseudoPot. # 3 for C  read from file:
     /gpfs/pace1/project/chbe-medford/medford-share/data/pseudos/SSSP_eff_PBE/C.UPF
     MD5 check sum: d1aef80898a10debaa0f26306b886e00
     Pseudo is Ultrasoft + core correction, Zval =  4.0
     Generated by new atomic code, or converted to UPF format
     Using radial grid of  721 points,  4 beta functions with: 
                l(1) =   0
                l(2) =   0
                l(3) =   1
                l(4) =   1
     Q(r) pseudized with  8 coefficients,  rinner =    1.100   1.100   1.100


     PseudoPot. # 4 for  H read from file:
     /gpfs/pace1/project/chbe-medford/medford-share/data/pseudos/SSSP_eff_PBE/H.UPF
     MD5 check sum: 36633979392af7100e6f6632747262d3
     Pseudo is Ultrasoft, Zval =  1.0
     Generated using "atomic" code by A. Dal Corso  v.5.0.99 svn rev. 10869
     Using radial grid of  929 points,  2 beta functions with: 
                l(1) =   0
                l(2) =   0
     Q(r) pseudized with 0 coefficients 


     atomic species   valence    mass     pseudopotential
        Pt1           16.00   195.08000     Pt( 1.00)
        O1             6.00    15.99940     O ( 1.00)
        C1             4.00    12.01100     C ( 1.00)
        H1             1.00     1.00794      H( 1.00)

     No symmetry found



   Cartesian axes

     site n.     atom                  positions (alat units)
         1           Pt1 tau(   1) = (   0.0000000   0.0000000  10.0000000  )
         2           Pt1 tau(   2) = (   1.3874142   0.8010240  12.2656379  )
         3           Pt1 tau(   3) = (  -1.3874142   2.4030719  10.0000000  )
         4           Pt1 tau(   4) = (   0.0000000   3.2040959  12.2656379  )
         5           Pt1 tau(   5) = (  -2.7748284   4.8061438  10.0000000  )
         6           Pt1 tau(   6) = (  -1.3874142   5.6071678  12.2656379  )
         7           Pt1 tau(   7) = (  -4.1622426   7.2092157  10.0000000  )
         8           Pt1 tau(   8) = (  -2.7748284   8.0102397  12.2656379  )
         9           Pt1 tau(   9) = (   2.7748284   0.0000000  10.0000000  )
        10           Pt1 tau(  10) = (   4.1622426   0.8010240  12.2656379  )
        11           Pt1 tau(  11) = (   1.3874142   2.4030719  10.0000000  )
        12           Pt1 tau(  12) = (   2.7748284   3.2040959  12.2656379  )
        13           Pt1 tau(  13) = (   0.0000000   4.8061438  10.0000000  )
        14           Pt1 tau(  14) = (   1.3874142   5.6071678  12.2656379  )
        15           Pt1 tau(  15) = (  -1.3874142   7.2092157  10.0000000  )
        16           Pt1 tau(  16) = (   0.0000000   8.0102397  12.2656379  )
        17           Pt1 tau(  17) = (   5.5496569   0.0000000  10.0000000  )
        18           Pt1 tau(  18) = (   6.9370711   0.8010240  12.2656379  )
        19           Pt1 tau(  19) = (   4.1622426   2.4030719  10.0000000  )
        20           Pt1 tau(  20) = (   5.5496569   3.2040959  12.2656379  )
        21           Pt1 tau(  21) = (   2.7748284   4.8061438  10.0000000  )
        22           Pt1 tau(  22) = (   4.1622426   5.6071678  12.2656379  )
        23           Pt1 tau(  23) = (   1.3874142   7.2092157  10.0000000  )
        24           Pt1 tau(  24) = (   2.7748284   8.0102397  12.2656379  )
        25           Pt1 tau(  25) = (   8.3244853   0.0000000  10.0000000  )
        26           Pt1 tau(  26) = (   9.7118995   0.8010240  12.2656379  )
        27           Pt1 tau(  27) = (   6.9370711   2.4030719  10.0000000  )
        28           Pt1 tau(  28) = (   8.3244853   3.2040959  12.2656379  )
        29           Pt1 tau(  29) = (   5.5496569   4.8061438  10.0000000  )
        30           Pt1 tau(  30) = (   6.9370711   5.6071678  12.2656379  )
        31           Pt1 tau(  31) = (   4.1622426   7.2092157  10.0000000  )
        32           Pt1 tau(  32) = (   5.5496569   8.0102397  12.2656379  )
        33           O1  tau(  33) = (   5.9051000   1.9282590  19.1502048  )
        34           O1  tau(  34) = (   6.0612000   4.4277810  18.1356544  )
        35           O1  tau(  35) = (   3.7891000   0.2979676  18.9246532  )
        36           O1  tau(  36) = (   3.2968000   4.8459746  17.5438610  )
        37           O1  tau(  37) = (   4.4143000   0.8009736  15.5296527  )
        38           O1  tau(  38) = (   5.5500000   4.8060000  14.7656379  )
        39           O1  tau(  39) = (   0.0716431   9.2152562  17.0257824  )
        40           O1  tau(  40) = (   4.5457000   6.5289924  15.8560737  )
        41           C1  tau(  41) = (   4.7638000   2.4164892  18.4264082  )
        42           C1  tau(  42) = (   5.2748000   3.4650275  17.4194059  )
        43           C1  tau(  43) = (   3.9993000   1.2178977  17.8502965  )
        44           C1  tau(  44) = (   4.2074000   4.2446065  16.6373249  )
        45           C1  tau(  45) = (   4.7721000   0.4535050  16.7902231  )
        46           C1  tau(  46) = (   4.7724000   5.3325640  15.7448466  )
        47           H1  tau(  47) = (   4.1377000   2.8995570  19.1866405  )
        48           H1  tau(  48) = (   5.9741000   2.9905597  16.7218854  )
        49           H1  tau(  49) = (   3.0219000   1.5176897  17.4587941  )
        50           H1  tau(  50) = (   3.6280000   3.5602121  16.0075932  )
        51           H1  tau(  51) = (   6.3506000   2.6971628  19.5452346  )
        52           H1  tau(  52) = (   5.4712000   4.8809983  18.7622713  )
        53           H1  tau(  53) = (  -2.3543569   9.2124601  18.5979961  )
        54           H1  tau(  54) = (   2.5593000   5.2082827  17.0237454  )
        55           H1  tau(  55) = (   4.9170000   0.2976879  14.8541133  )
        56           H1  tau(  56) = (   5.9103000   5.4988596  14.1719767  )

     number of k points=    10  Fermi-Dirac smearing, width (Ry)=  0.0073
                       cart. coord. in units 2pi/alat
        k(    1) = (   0.0000000   0.0000000   0.0000000), wk =   0.1250000
        k(    2) = (   0.0000000   0.0260084   0.0000000), wk =   0.2500000
        k(    3) = (   0.0000000  -0.0520168   0.0000000), wk =   0.1250000
        k(    4) = (   0.0225239   0.0390126   0.0000000), wk =   0.2500000
        k(    5) = (  -0.0225239   0.0130042   0.0000000), wk =   0.2500000
        k(    6) = (   0.0225239   0.0130042   0.0000000), wk =   0.2500000
        k(    7) = (   0.0450478  -0.0260084   0.0000000), wk =   0.1250000
        k(    8) = (  -0.0450478  -0.0260084   0.0000000), wk =   0.1250000
        k(    9) = (  -0.0225239   0.0390126   0.0000000), wk =   0.2500000
        k(   10) = (   0.0450478  -0.0000000   0.0000000), wk =   0.2500000

     Dense  grid:  2160719 G-vectors     FFT dimensions: ( 125, 125, 324)

     Smooth grid:   738771 G-vectors     FFT dimensions: (  90,  90, 225)

     Largest allocated arrays     est. size (Mb)     dimensions
        Kohn-Sham Wavefunctions        36.37 Mb     (    7764,  307)
        NL pseudopotentials            88.61 Mb     (    7764,  748)
        Each V/rho on FFT grid          6.44 Mb     (  421875)
        Each G-vector array             1.37 Mb     (  180061)
        G-vector shells                 0.43 Mb     (   56214)
     Largest temporary arrays     est. size (Mb)     dimensions
        Auxiliary wavefunctions       145.48 Mb     (    7764, 1228)
        Each subspace H/S matrix       23.01 Mb     (    1228, 1228)
        Each <psi_i|beta_j> matrix      3.50 Mb     (     748,  307)
        Arrays for rho mixing          51.50 Mb     (  421875,    8)

     Initial potential from superposition of free atoms
     Check: negative starting charge=   -5.910247

     starting charge  577.99929, renormalised to  594.00000

     negative rho (up, down):  6.074E+00 0.000E+00
     Starting wfc are  450 randomized atomic wfcs

     total cpu time spent up to now is      130.9 secs

     per-process dynamical memory:   644.7 Mb

     Self-consistent Calculation

     iteration #  1     ecut=    40.42 Ry     beta=0.07
     Davidson diagonalization with overlap
     ethr =  1.00E-02,  avg # of iterations =  2.0

     negative rho (up, down):  6.066E+00 0.000E+00

     total cpu time spent up to now is      413.4 secs

     total energy              =   -7095.17124006 Ry
     Harris-Foulkes estimate   =   -7098.45846810 Ry
     estimated scf accuracy    <     397.05709487 Ry

     iteration #  2     ecut=    40.42 Ry     beta=0.07
     Davidson diagonalization with overlap
     ethr =  1.00E-02,  avg # of iterations =  1.0

     negative rho (up, down):  6.123E+00 0.000E+00

     total cpu time spent up to now is      618.4 secs

     total energy              =   -7070.81047350 Ry
     Harris-Foulkes estimate   =   -7095.34804662 Ry
     estimated scf accuracy    <     329.99996190 Ry

     iteration #  3     ecut=    40.42 Ry     beta=0.07
     Davidson diagonalization with overlap
     ethr =  1.00E-02,  avg # of iterations =  6.4

     negative rho (up, down):  6.127E+00 0.000E+00

     total cpu time spent up to now is      907.7 secs

     total energy              =   -7083.56187758 Ry
     Harris-Foulkes estimate   =   -7084.24694109 Ry
     estimated scf accuracy    <      15.76804552 Ry

     iteration #  4     ecut=    40.42 Ry     beta=0.07
     Davidson diagonalization with overlap
     ethr =  2.65E-03,  avg # of iterations =  2.0

     negative rho (up, down):  6.204E+00 0.000E+00

     total cpu time spent up to now is     1117.5 secs

     total energy              =   -7077.35415735 Ry
     Harris-Foulkes estimate   =   -7083.74093232 Ry
     estimated scf accuracy    <      13.91122620 Ry

     iteration #  5     ecut=    40.42 Ry     beta=0.07
     Davidson diagonalization with overlap
     ethr =  2.34E-03,  avg # of iterations =  9.5

     negative rho (up, down):  6.210E+00 0.000E+00

     total cpu time spent up to now is     1417.2 secs

     total energy              =   -7080.49782986 Ry
     Harris-Foulkes estimate   =   -7083.11418600 Ry
     estimated scf accuracy    <     139.12388579 Ry

     iteration #  6     ecut=    40.42 Ry     beta=0.07
     Davidson diagonalization with overlap
     ethr =  2.34E-03,  avg # of iterations =  1.2

     negative rho (up, down):  6.209E+00 0.000E+00

     total cpu time spent up to now is     1630.8 secs

     total energy              =   -7081.20773216 Ry
     Harris-Foulkes estimate   =   -7081.18196276 Ry
     estimated scf accuracy    <      54.44608582 Ry

     iteration #  7     ecut=    40.42 Ry     beta=0.07
     Davidson diagonalization with overlap
     ethr =  2.34E-03,  avg # of iterations =  1.0

     negative rho (up, down):  6.209E+00 0.000E+00

     total cpu time spent up to now is     1845.5 secs

     total energy              =   -7081.25754178 Ry
     Harris-Foulkes estimate   =   -7081.23044240 Ry
     estimated scf accuracy    <      54.48478936 Ry

     iteration #  8     ecut=    40.42 Ry     beta=0.07
     Davidson diagonalization with overlap
     ethr =  2.34E-03,  avg # of iterations =  1.0

     negative rho (up, down):  6.189E+00 0.000E+00

     total cpu time spent up to now is     2060.8 secs

     total energy              =   -7080.10516982 Ry
     Harris-Foulkes estimate   =   -7081.26487913 Ry
     estimated scf accuracy    <      54.52240286 Ry

     iteration #  9     ecut=    40.42 Ry     beta=0.07
     Davidson diagonalization with overlap
     ethr =  2.34E-03,  avg # of iterations =  7.1

     negative rho (up, down):  6.186E+00 0.000E+00

     total cpu time spent up to now is     2310.1 secs

     total energy              =   -7080.61822776 Ry
     Harris-Foulkes estimate   =   -7080.61640169 Ry
     estimated scf accuracy    <      10.54688424 Ry

     iteration # 10     ecut=    40.42 Ry     beta=0.07
     Davidson diagonalization with overlap
     ethr =  1.78E-03,  avg # of iterations =  1.8

     negative rho (up, down):  6.188E+00 0.000E+00

     total cpu time spent up to now is     2525.3 secs

     total energy              =   -7080.62902352 Ry
     Harris-Foulkes estimate   =   -7080.65812539 Ry
     estimated scf accuracy    <       8.13402486 Ry

     iteration # 11     ecut=    40.42 Ry     beta=0.07
     Davidson diagonalization with overlap
     ethr =  1.37E-03,  avg # of iterations =  1.5

     negative rho (up, down):  6.189E+00 0.000E+00

     total cpu time spent up to now is     2743.8 secs

     total energy              =   -7080.60805920 Ry
     Harris-Foulkes estimate   =   -7080.67082676 Ry
     estimated scf accuracy    <      13.67354617 Ry

     iteration # 12     ecut=    40.42 Ry     beta=0.07
     Davidson diagonalization with overlap
     ethr =  1.37E-03,  avg # of iterations =  1.0

     negative rho (up, down):  6.233E+00 0.000E+00

     total cpu time spent up to now is     2962.8 secs

     total energy              =   -7080.29707440 Ry
     Harris-Foulkes estimate   =   -7080.62538788 Ry
     estimated scf accuracy    <      10.73651219 Ry

     iteration # 13     ecut=    40.42 Ry     beta=0.07
     Davidson diagonalization with overlap
     ethr =  1.37E-03,  avg # of iterations =  4.2

     negative rho (up, down):  6.242E+00 0.000E+00

     total cpu time spent up to now is     3203.5 secs

     total energy              =   -7080.82645206 Ry
     Harris-Foulkes estimate   =   -7080.83868828 Ry
     estimated scf accuracy    <       3.03748712 Ry

     iteration # 14     ecut=    40.42 Ry     beta=0.07
     Davidson diagonalization with overlap
     ethr =  5.11E-04,  avg # of iterations =  1.0

     negative rho (up, down):  6.223E+00 0.000E+00

     total cpu time spent up to now is     3417.2 secs

     total energy              =   -7080.80387656 Ry
     Harris-Foulkes estimate   =   -7080.85216930 Ry
     estimated scf accuracy    <       2.97704489 Ry

     iteration # 15     ecut=    40.42 Ry     beta=0.07
     Davidson diagonalization with overlap
     ethr =  5.01E-04,  avg # of iterations =  1.0

     negative rho (up, down):  6.235E+00 0.000E+00

     total cpu time spent up to now is     3636.7 secs

     total energy              =   -7080.77821812 Ry
     Harris-Foulkes estimate   =   -7080.80818432 Ry
     estimated scf accuracy    <       2.85922090 Ry

     iteration # 16     ecut=    40.42 Ry     beta=0.07
     Davidson diagonalization with overlap
     ethr =  4.81E-04,  avg # of iterations =  1.0

     negative rho (up, down):  6.323E+00 0.000E+00

     total cpu time spent up to now is     3857.4 secs

     total energy              =   -7080.07498839 Ry
     Harris-Foulkes estimate   =   -7080.79295804 Ry
     estimated scf accuracy    <       2.83406979 Ry

     iteration # 17     ecut=    40.42 Ry     beta=0.07
     Davidson diagonalization with overlap
     ethr =  4.77E-04,  avg # of iterations =  3.2

     negative rho (up, down):  6.323E+00 0.000E+00

     total cpu time spent up to now is     4099.8 secs

     total energy              =   -7080.42966170 Ry
     Harris-Foulkes estimate   =   -7080.39927854 Ry
     estimated scf accuracy    <      10.46379259 Ry

     iteration # 18     ecut=    40.42 Ry     beta=0.07
     Davidson diagonalization with overlap
     ethr =  4.77E-04,  avg # of iterations =  1.0

     negative rho (up, down):  6.318E+00 0.000E+00

     total cpu time spent up to now is     4312.0 secs

     total energy              =   -7080.52445046 Ry
     Harris-Foulkes estimate   =   -7080.44980622 Ry
     estimated scf accuracy    <      16.72424155 Ry

     iteration # 19     ecut=    40.42 Ry     beta=0.07
     Davidson diagonalization with overlap
     ethr =  4.77E-04,  avg # of iterations =  1.0

     negative rho (up, down):  6.309E+00 0.000E+00

     total cpu time spent up to now is     4529.7 secs

     total energy              =   -7080.71162938 Ry
     Harris-Foulkes estimate   =   -7080.56089016 Ry
     estimated scf accuracy    <      30.32292380 Ry

     iteration # 20     ecut=    40.42 Ry     beta=0.07
     Davidson diagonalization with overlap
     ethr =  4.77E-04,  avg # of iterations =  1.0

     negative rho (up, down):  6.304E+00 0.000E+00

     total cpu time spent up to now is     4748.3 secs

     total energy              =   -7080.72196792 Ry
     Harris-Foulkes estimate   =   -7080.73870626 Ry
     estimated scf accuracy    <      43.23281795 Ry

     iteration # 21     ecut=    40.42 Ry     beta=0.07
     Davidson diagonalization with overlap
     ethr =  4.77E-04,  avg # of iterations =  1.0

     negative rho (up, down):  6.337E+00 0.000E+00

     total cpu time spent up to now is     4965.7 secs

     total energy              =   -7080.64632398 Ry
     Harris-Foulkes estimate   =   -7080.72671539 Ry
     estimated scf accuracy    <      41.71776912 Ry

     iteration # 22     ecut=    40.42 Ry     beta=0.07
     Davidson diagonalization with overlap
     ethr =  4.77E-04,  avg # of iterations =  1.0

     negative rho (up, down):  6.325E+00 0.000E+00

     total cpu time spent up to now is     5179.4 secs

     total energy              =   -7080.48666158 Ry
     Harris-Foulkes estimate   =   -7080.65733962 Ry
     estimated scf accuracy    <      38.34944536 Ry

     iteration # 23     ecut=    40.42 Ry     beta=0.07
     Davidson diagonalization with overlap
     ethr =  4.77E-04,  avg # of iterations =  1.6

     negative rho (up, down):  6.355E+00 0.000E+00

     total cpu time spent up to now is     5397.1 secs

     total energy              =   -7079.94349719 Ry
     Harris-Foulkes estimate   =   -7080.55203811 Ry
     estimated scf accuracy    <      24.56916155 Ry

     iteration # 24     ecut=    40.42 Ry     beta=0.07
     Davidson diagonalization with overlap
     ethr =  4.77E-04,  avg # of iterations =  2.3

     negative rho (up, down):  6.339E+00 0.000E+00

     total cpu time spent up to now is     5620.6 secs

     total energy              =   -7080.26671248 Ry
     Harris-Foulkes estimate   =   -7080.32276777 Ry
     estimated scf accuracy    <       2.03970714 Ry

     iteration # 25     ecut=    40.42 Ry     beta=0.07
     Davidson diagonalization with overlap
     ethr =  3.43E-04,  avg # of iterations =  2.0

     negative rho (up, down):  6.341E+00 0.000E+00

     total cpu time spent up to now is     5840.7 secs

     total energy              =   -7080.17189347 Ry
     Harris-Foulkes estimate   =   -7080.38318665 Ry
     estimated scf accuracy    <      14.13473942 Ry

     iteration # 26     ecut=    40.42 Ry     beta=0.07
     Davidson diagonalization with overlap
     ethr =  3.43E-04,  avg # of iterations =  1.0

     negative rho (up, down):  6.347E+00 0.000E+00

     total cpu time spent up to now is     6054.3 secs

     total energy              =   -7080.21155367 Ry
     Harris-Foulkes estimate   =   -7080.27918474 Ry
     estimated scf accuracy    <       2.08922364 Ry

     iteration # 27     ecut=    40.42 Ry     beta=0.07
     Davidson diagonalization with overlap
     ethr =  3.43E-04,  avg # of iterations =  1.1

     negative rho (up, down):  6.306E+00 0.000E+00

     total cpu time spent up to now is     6265.3 secs

     total energy              =   -7080.10174854 Ry
     Harris-Foulkes estimate   =   -7080.22026299 Ry
     estimated scf accuracy    <       1.45902222 Ry

     iteration # 28     ecut=    40.42 Ry     beta=0.07
     Davidson diagonalization with overlap
     ethr =  2.46E-04,  avg # of iterations =  2.8

     negative rho (up, down):  6.303E+00 0.000E+00

     total cpu time spent up to now is     6486.1 secs

     total energy              =   -7080.06638016 Ry
     Harris-Foulkes estimate   =   -7080.13426065 Ry
     estimated scf accuracy    <       1.22130092 Ry

     iteration # 29     ecut=    40.42 Ry     beta=0.07
     Davidson diagonalization with overlap
     ethr =  2.06E-04,  avg # of iterations =  1.0

     negative rho (up, down):  6.297E+00 0.000E+00

     total cpu time spent up to now is     6706.3 secs

     total energy              =   -7080.04470970 Ry
     Harris-Foulkes estimate   =   -7080.08808692 Ry
     estimated scf accuracy    <       0.62083457 Ry

     iteration # 30     ecut=    40.42 Ry     beta=0.07
     Davidson diagonalization with overlap
     ethr =  1.05E-04,  avg # of iterations =  2.9

     negative rho (up, down):  6.297E+00 0.000E+00

     total cpu time spent up to now is     6938.0 secs

     total energy              =   -7080.04860646 Ry
     Harris-Foulkes estimate   =   -7080.06216278 Ry
     estimated scf accuracy    <       0.53536811 Ry

     iteration # 31     ecut=    40.42 Ry     beta=0.07
     Davidson diagonalization with overlap
     ethr =  9.01E-05,  avg # of iterations =  1.0

     negative rho (up, down):  6.239E+00 0.000E+00

     total cpu time spent up to now is     7266.4 secs

     total energy              =   -7079.98040984 Ry
     Harris-Foulkes estimate   =   -7080.05078839 Ry
     estimated scf accuracy    <       0.50119878 Ry

     iteration # 32     ecut=    40.42 Ry     beta=0.07
     Davidson diagonalization with overlap
     ethr =  8.44E-05,  avg # of iterations =  2.8

     negative rho (up, down):  6.241E+00 0.000E+00

     total cpu time spent up to now is     9344.5 secs

     total energy              =   -7079.99369477 Ry
     Harris-Foulkes estimate   =   -7080.00670660 Ry
     estimated scf accuracy    <       0.57738563 Ry

     iteration # 33     ecut=    40.42 Ry     beta=0.07
     Davidson diagonalization with overlap
     ethr =  8.44E-05,  avg # of iterations =  1.0

     negative rho (up, down):  6.211E+00 0.000E+00

     total cpu time spent up to now is     9904.8 secs

     total energy              =   -7079.96519662 Ry
     Harris-Foulkes estimate   =   -7079.99798743 Ry
     estimated scf accuracy    <       0.43190159 Ry

     iteration # 34     ecut=    40.42 Ry     beta=0.07
     Davidson diagonalization with overlap
     ethr =  7.27E-05,  avg # of iterations =  1.5

     negative rho (up, down):  6.183E+00 0.000E+00

     total cpu time spent up to now is    10730.1 secs

     total energy              =   -7079.94359750 Ry
     Harris-Foulkes estimate   =   -7079.96964389 Ry
     estimated scf accuracy    <       0.36189877 Ry

     iteration # 35     ecut=    40.42 Ry     beta=0.07
     Davidson diagonalization with overlap
     ethr =  6.09E-05,  avg # of iterations =  3.0

     negative rho (up, down):  6.115E+00 0.000E+00

     total cpu time spent up to now is    10967.9 secs

     total energy              =   -7079.87321015 Ry
     Harris-Foulkes estimate   =   -7079.95537158 Ry
     estimated scf accuracy    <       0.37944229 Ry

     iteration # 36     ecut=    40.42 Ry     beta=0.07
     Davidson diagonalization with overlap
     ethr =  6.09E-05,  avg # of iterations =  3.0

     negative rho (up, down):  6.065E+00 0.000E+00

     total cpu time spent up to now is    11195.5 secs

     total energy              =   -7079.87030853 Ry
     Harris-Foulkes estimate   =   -7079.89150696 Ry
     estimated scf accuracy    <       0.20043356 Ry

     iteration # 37     ecut=    40.42 Ry     beta=0.07
     Davidson diagonalization with overlap
     ethr =  3.37E-05,  avg # of iterations =  1.0

     negative rho (up, down):  5.991E+00 0.000E+00

     total cpu time spent up to now is    11409.9 secs

     total energy              =   -7079.85070745 Ry
     Harris-Foulkes estimate   =   -7079.87280962 Ry
     estimated scf accuracy    <       0.16657339 Ry

     iteration # 38     ecut=    40.42 Ry     beta=0.07
     Davidson diagonalization with overlap
     ethr =  2.80E-05,  avg # of iterations =  2.4

     negative rho (up, down):  5.996E+00 0.000E+00

     total cpu time spent up to now is    11634.4 secs

     total energy              =   -7079.83765415 Ry
     Harris-Foulkes estimate   =   -7079.85922816 Ry
     estimated scf accuracy    <       0.18125625 Ry

     iteration # 39     ecut=    40.42 Ry     beta=0.07
     Davidson diagonalization with overlap
     ethr =  2.80E-05,  avg # of iterations =  2.0

     negative rho (up, down):  5.961E+00 0.000E+00

     total cpu time spent up to now is    11858.1 secs

     total energy              =   -7079.82576444 Ry
     Harris-Foulkes estimate   =   -7079.84233717 Ry
     estimated scf accuracy    <       0.10196053 Ry

     iteration # 40     ecut=    40.42 Ry     beta=0.07
     Davidson diagonalization with overlap
     ethr =  1.72E-05,  avg # of iterations =  2.1

     negative rho (up, down):  5.887E+00 0.000E+00

     total cpu time spent up to now is    12079.3 secs

     total energy              =   -7079.81713710 Ry
     Harris-Foulkes estimate   =   -7079.82794112 Ry
     estimated scf accuracy    <       0.08062999 Ry

     iteration # 41     ecut=    40.42 Ry     beta=0.07
     Davidson diagonalization with overlap
     ethr =  1.36E-05,  avg # of iterations =  2.0

     negative rho (up, down):  5.890E+00 0.000E+00

     total cpu time spent up to now is    12300.2 secs

     total energy              =   -7079.80701509 Ry
     Harris-Foulkes estimate   =   -7079.82064760 Ry
     estimated scf accuracy    <       0.16815844 Ry

     iteration # 42     ecut=    40.42 Ry     beta=0.07
     Davidson diagonalization with overlap
     ethr =  1.36E-05,  avg # of iterations =  2.0

     negative rho (up, down):  5.874E+00 0.000E+00

     total cpu time spent up to now is    12522.4 secs

     total energy              =   -7079.81186018 Ry
     Harris-Foulkes estimate   =   -7079.81300811 Ry
     estimated scf accuracy    <       0.04789782 Ry

     iteration # 43     ecut=    40.42 Ry     beta=0.07
     Davidson diagonalization with overlap
     ethr =  8.06E-06,  avg # of iterations =  1.0

     negative rho (up, down):  5.802E+00 0.000E+00

     total cpu time spent up to now is    12739.5 secs

     total energy              =   -7079.80558268 Ry
     Harris-Foulkes estimate   =   -7079.81225105 Ry
     estimated scf accuracy    <       0.04479439 Ry

     iteration # 44     ecut=    40.42 Ry     beta=0.07
     Davidson diagonalization with overlap
     ethr =  7.54E-06,  avg # of iterations =  2.8

     negative rho (up, down):  5.782E+00 0.000E+00

     total cpu time spent up to now is    12970.9 secs

     total energy              =   -7079.79964649 Ry
     Harris-Foulkes estimate   =   -7079.80819303 Ry
     estimated scf accuracy    <       0.03703586 Ry

     iteration # 45     ecut=    40.42 Ry     beta=0.07
     Davidson diagonalization with overlap
     ethr =  6.23E-06,  avg # of iterations =  4.3

     negative rho (up, down):  5.770E+00 0.000E+00

     total cpu time spent up to now is    13214.0 secs

     total energy              =   -7079.79953143 Ry
     Harris-Foulkes estimate   =   -7079.80207301 Ry
     estimated scf accuracy    <       0.02491350 Ry

     iteration # 46     ecut=    40.42 Ry     beta=0.07
     Davidson diagonalization with overlap
     ethr =  4.19E-06,  avg # of iterations =  4.5

     negative rho (up, down):  5.750E+00 0.000E+00

     total cpu time spent up to now is    13448.8 secs

     total energy              =   -7079.79621419 Ry
     Harris-Foulkes estimate   =   -7079.80052880 Ry
     estimated scf accuracy    <       0.02093079 Ry

     iteration # 47     ecut=    40.42 Ry     beta=0.07
     Davidson diagonalization with overlap
     ethr =  3.52E-06,  avg # of iterations =  2.0

     negative rho (up, down):  5.728E+00 0.000E+00

     total cpu time spent up to now is    13673.7 secs

     total energy              =   -7079.79458073 Ry
     Harris-Foulkes estimate   =   -7079.79690594 Ry
     estimated scf accuracy    <       0.01214129 Ry

     iteration # 48     ecut=    40.42 Ry     beta=0.07
     Davidson diagonalization with overlap
     ethr =  2.04E-06,  avg # of iterations =  2.2

     negative rho (up, down):  5.725E+00 0.000E+00

     total cpu time spent up to now is    13911.8 secs

     total energy              =   -7079.79479840 Ry
     Harris-Foulkes estimate   =   -7079.79511720 Ry
     estimated scf accuracy    <       0.00837681 Ry

     iteration # 49     ecut=    40.42 Ry     beta=0.07
     Davidson diagonalization with overlap
     ethr =  1.41E-06,  avg # of iterations =  4.7

     negative rho (up, down):  5.727E+00 0.000E+00

     total cpu time spent up to now is    14144.3 secs

     total energy              =   -7079.79463981 Ry
     Harris-Foulkes estimate   =   -7079.79497593 Ry
     estimated scf accuracy    <       0.00706416 Ry

     iteration # 50     ecut=    40.42 Ry     beta=0.07
     Davidson diagonalization with overlap
     ethr =  1.19E-06,  avg # of iterations =  1.7

     negative rho (up, down):  5.719E+00 0.000E+00

     total cpu time spent up to now is    14361.0 secs

     total energy              =   -7079.79443791 Ry
     Harris-Foulkes estimate   =   -7079.79478906 Ry
     estimated scf accuracy    <       0.00570975 Ry

     iteration # 51     ecut=    40.42 Ry     beta=0.07
     Davidson diagonalization with overlap
     ethr =  9.61E-07,  avg # of iterations =  2.1

     negative rho (up, down):  5.680E+00 0.000E+00

     total cpu time spent up to now is    14577.8 secs

     total energy              =   -7079.79304240 Ry
     Harris-Foulkes estimate   =   -7079.79453036 Ry
     estimated scf accuracy    <       0.00461876 Ry

     iteration # 52     ecut=    40.42 Ry     beta=0.07
     Davidson diagonalization with overlap
     ethr =  7.78E-07,  avg # of iterations =  2.0

     negative rho (up, down):  5.662E+00 0.000E+00

     total cpu time spent up to now is    14800.9 secs

     total energy              =   -7079.79265640 Ry
     Harris-Foulkes estimate   =   -7079.79323245 Ry
     estimated scf accuracy    <       0.00319798 Ry

     iteration # 53     ecut=    40.42 Ry     beta=0.07
     Davidson diagonalization with overlap
     ethr =  5.38E-07,  avg # of iterations =  1.0

     negative rho (up, down):  5.650E+00 0.000E+00

     total cpu time spent up to now is    15237.0 secs

     total energy              =   -7079.79227878 Ry
     Harris-Foulkes estimate   =   -7079.79267727 Ry
     estimated scf accuracy    <       0.00291203 Ry

     iteration # 54     ecut=    40.42 Ry     beta=0.07
     Davidson diagonalization with overlap
     ethr =  4.90E-07,  avg # of iterations =  1.0

     negative rho (up, down):  5.645E+00 0.000E+00

     total cpu time spent up to now is    15471.7 secs

     total energy              =   -7079.79210813 Ry
     Harris-Foulkes estimate   =   -7079.79232420 Ry
     estimated scf accuracy    <       0.00251722 Ry

     iteration # 55     ecut=    40.42 Ry     beta=0.07
     Davidson diagonalization with overlap
     ethr =  4.24E-07,  avg # of iterations =  2.4

     negative rho (up, down):  5.650E+00 0.000E+00

     total cpu time spent up to now is    15714.1 secs

     total energy              =   -7079.79162741 Ry
     Harris-Foulkes estimate   =   -7079.79216457 Ry
     estimated scf accuracy    <       0.00168812 Ry

     iteration # 56     ecut=    40.42 Ry     beta=0.07
     Davidson diagonalization with overlap
     ethr =  2.84E-07,  avg # of iterations =  6.2

     negative rho (up, down):  5.650E+00 0.000E+00

     total cpu time spent up to now is    15971.9 secs

     total energy              =   -7079.79182735 Ry
     Harris-Foulkes estimate   =   -7079.79173585 Ry
     estimated scf accuracy    <       0.00096011 Ry

     iteration # 57     ecut=    40.42 Ry     beta=0.07
     Davidson diagonalization with overlap
     ethr =  1.62E-07,  avg # of iterations =  1.0

     negative rho (up, down):  5.653E+00 0.000E+00

     total cpu time spent up to now is    16189.7 secs

     total energy              =   -7079.79188023 Ry
     Harris-Foulkes estimate   =   -7079.79183705 Ry
     estimated scf accuracy    <       0.00087006 Ry

     iteration # 58     ecut=    40.42 Ry     beta=0.07
     Davidson diagonalization with overlap
     ethr =  1.46E-07,  avg # of iterations =  1.4

     negative rho (up, down):  5.654E+00 0.000E+00

     total cpu time spent up to now is    16407.9 secs

     total energy              =   -7079.79189405 Ry
     Harris-Foulkes estimate   =   -7079.79188749 Ry
     estimated scf accuracy    <       0.00081737 Ry

     iteration # 59     ecut=    40.42 Ry     beta=0.07
     Davidson diagonalization with overlap
     ethr =  1.38E-07,  avg # of iterations =  1.0

     negative rho (up, down):  5.653E+00 0.000E+00

     total cpu time spent up to now is    16625.9 secs

     total energy              =   -7079.79197127 Ry
     Harris-Foulkes estimate   =   -7079.79189699 Ry
     estimated scf accuracy    <       0.00077311 Ry

     iteration # 60     ecut=    40.42 Ry     beta=0.07
     Davidson diagonalization with overlap
     ethr =  1.30E-07,  avg # of iterations =  2.4

     negative rho (up, down):  5.652E+00 0.000E+00

     total cpu time spent up to now is    16849.9 secs

     total energy              =   -7079.79201890 Ry
     Harris-Foulkes estimate   =   -7079.79198166 Ry
     estimated scf accuracy    <       0.00066352 Ry

     iteration # 61     ecut=    40.42 Ry     beta=0.07
     Davidson diagonalization with overlap
     ethr =  1.12E-07,  avg # of iterations =  1.0

     negative rho (up, down):  5.654E+00 0.000E+00

     total cpu time spent up to now is    17078.7 secs

     total energy              =   -7079.79204837 Ry
     Harris-Foulkes estimate   =   -7079.79202196 Ry
     estimated scf accuracy    <       0.00060504 Ry

     iteration # 62     ecut=    40.42 Ry     beta=0.07
     Davidson diagonalization with overlap
     ethr =  1.02E-07,  avg # of iterations =  6.5

     negative rho (up, down):  5.657E+00 0.000E+00

     total cpu time spent up to now is    17340.0 secs

     total energy              =   -7079.79204682 Ry
     Harris-Foulkes estimate   =   -7079.79207966 Ry
     estimated scf accuracy    <       0.00054830 Ry

     iteration # 63     ecut=    40.42 Ry     beta=0.07
     Davidson diagonalization with overlap
     ethr =  9.23E-08,  avg # of iterations =  1.0

     negative rho (up, down):  5.660E+00 0.000E+00

     total cpu time spent up to now is    17563.9 secs

     total energy              =   -7079.79203562 Ry
     Harris-Foulkes estimate   =   -7079.79204921 Ry
     estimated scf accuracy    <       0.00049454 Ry

     iteration # 64     ecut=    40.42 Ry     beta=0.07
     Davidson diagonalization with overlap
     ethr =  8.33E-08,  avg # of iterations =  1.7

     negative rho (up, down):  5.663E+00 0.000E+00

     total cpu time spent up to now is    17791.3 secs

     total energy              =   -7079.79212664 Ry
     Harris-Foulkes estimate   =   -7079.79204044 Ry
     estimated scf accuracy    <       0.00043486 Ry

     iteration # 65     ecut=    40.42 Ry     beta=0.07
     Davidson diagonalization with overlap
     ethr =  7.32E-08,  avg # of iterations =  2.6

     negative rho (up, down):  5.668E+00 0.000E+00

     total cpu time spent up to now is    18016.9 secs

     total energy              =   -7079.79220435 Ry
     Harris-Foulkes estimate   =   -7079.79213474 Ry
     estimated scf accuracy    <       0.00030924 Ry

     iteration # 66     ecut=    40.42 Ry     beta=0.07
     Davidson diagonalization with overlap
     ethr =  5.21E-08,  avg # of iterations =  1.9

     negative rho (up, down):  5.664E+00 0.000E+00

     total cpu time spent up to now is    18241.0 secs

     total energy              =   -7079.79212760 Ry
     Harris-Foulkes estimate   =   -7079.79220933 Ry
     estimated scf accuracy    <       0.00025683 Ry

     iteration # 67     ecut=    40.42 Ry     beta=0.07
     Davidson diagonalization with overlap
     ethr =  4.32E-08,  avg # of iterations =  2.5

     negative rho (up, down):  5.661E+00 0.000E+00

     total cpu time spent up to now is    18480.2 secs

     total energy              =   -7079.79202576 Ry
     Harris-Foulkes estimate   =   -7079.79213740 Ry
     estimated scf accuracy    <       0.00022237 Ry

     iteration # 68     ecut=    40.42 Ry     beta=0.07
     Davidson diagonalization with overlap
     ethr =  3.74E-08,  avg # of iterations =  3.0

     negative rho (up, down):  5.661E+00 0.000E+00

     total cpu time spent up to now is    18722.4 secs

     total energy              =   -7079.79204818 Ry
     Harris-Foulkes estimate   =   -7079.79204156 Ry
     estimated scf accuracy    <       0.00013026 Ry

     iteration # 69     ecut=    40.42 Ry     beta=0.07
     Davidson diagonalization with overlap
     ethr =  2.19E-08,  avg # of iterations =  2.8

     negative rho (up, down):  5.661E+00 0.000E+00

     total cpu time spent up to now is    18946.1 secs

     total energy              =   -7079.79203202 Ry
     Harris-Foulkes estimate   =   -7079.79205024 Ry
     estimated scf accuracy    <       0.00010942 Ry

     iteration # 70     ecut=    40.42 Ry     beta=0.07
     Davidson diagonalization with overlap
     ethr =  1.84E-08,  avg # of iterations =  4.7

     negative rho (up, down):  5.661E+00 0.000E+00

     total cpu time spent up to now is    19182.0 secs

     total energy              =   -7079.79201594 Ry
     Harris-Foulkes estimate   =   -7079.79203815 Ry
     estimated scf accuracy    <       0.00008005 Ry

     iteration # 71     ecut=    40.42 Ry     beta=0.07
     Davidson diagonalization with overlap
     ethr =  1.35E-08,  avg # of iterations =  3.0

     negative rho (up, down):  5.663E+00 0.000E+00

     total cpu time spent up to now is    19415.9 secs

     total energy              =   -7079.79201677 Ry
     Harris-Foulkes estimate   =   -7079.79202001 Ry
     estimated scf accuracy    <       0.00004475 Ry

     iteration # 72     ecut=    40.42 Ry     beta=0.07
     Davidson diagonalization with overlap
     ethr =  7.53E-09,  avg # of iterations =  2.8

     negative rho (up, down):  5.663E+00 0.000E+00

     total cpu time spent up to now is    19648.5 secs

     total energy              =   -7079.79201649 Ry
     Harris-Foulkes estimate   =   -7079.79201775 Ry
     estimated scf accuracy    <       0.00003959 Ry

     iteration # 73     ecut=    40.42 Ry     beta=0.07
     Davidson diagonalization with overlap
     ethr =  6.66E-09,  avg # of iterations =  1.0

     negative rho (up, down):  5.663E+00 0.000E+00

     total cpu time spent up to now is    19875.1 secs

     total energy              =   -7079.79200791 Ry
     Harris-Foulkes estimate   =   -7079.79201692 Ry
     estimated scf accuracy    <       0.00003268 Ry

     iteration # 74     ecut=    40.42 Ry     beta=0.07
     Davidson diagonalization with overlap
     ethr =  5.50E-09,  avg # of iterations =  2.0

     negative rho (up, down):  5.664E+00 0.000E+00

     total cpu time spent up to now is    20110.1 secs

     total energy              =   -7079.79200899 Ry
     Harris-Foulkes estimate   =   -7079.79200870 Ry
     estimated scf accuracy    <       0.00001991 Ry

     iteration # 75     ecut=    40.42 Ry     beta=0.07
     Davidson diagonalization with overlap
     ethr =  3.35E-09,  avg # of iterations =  6.3

     negative rho (up, down):  5.663E+00 0.000E+00

     total cpu time spent up to now is    20375.9 secs

     total energy              =   -7079.79200988 Ry
     Harris-Foulkes estimate   =   -7079.79201056 Ry
     estimated scf accuracy    <       0.00001626 Ry

     iteration # 76     ecut=    40.42 Ry     beta=0.07
     Davidson diagonalization with overlap
     ethr =  2.74E-09,  avg # of iterations =  1.1

     negative rho (up, down):  5.663E+00 0.000E+00

     total cpu time spent up to now is    20599.3 secs

     total energy              =   -7079.79200900 Ry
     Harris-Foulkes estimate   =   -7079.79200996 Ry
     estimated scf accuracy    <       0.00001488 Ry

     iteration # 77     ecut=    40.42 Ry     beta=0.07
     Davidson diagonalization with overlap
     ethr =  2.51E-09,  avg # of iterations =  2.8

     negative rho (up, down):  5.664E+00 0.000E+00

     total cpu time spent up to now is    20835.9 secs

     total energy              =   -7079.79200989 Ry
     Harris-Foulkes estimate   =   -7079.79200957 Ry
     estimated scf accuracy    <       0.00000937 Ry

     iteration # 78     ecut=    40.42 Ry     beta=0.07
     Davidson diagonalization with overlap
     c_bands:  2 eigenvalues not converged
     ethr =  1.58E-09,  avg # of iterations =  5.0

     negative rho (up, down):  5.663E+00 0.000E+00

     total cpu time spent up to now is    21086.0 secs

     total energy              =   -7079.79201051 Ry
     Harris-Foulkes estimate   =   -7079.79201051 Ry
     estimated scf accuracy    <       0.00000660 Ry

     iteration # 79     ecut=    40.42 Ry     beta=0.07
     Davidson diagonalization with overlap
     c_bands:  2 eigenvalues not converged
     ethr =  1.11E-09,  avg # of iterations =  3.0

     negative rho (up, down):  5.663E+00 0.000E+00

     total cpu time spent up to now is    21314.0 secs

     total energy              =   -7079.79201021 Ry
     Harris-Foulkes estimate   =   -7079.79201056 Ry
     estimated scf accuracy    <       0.00000598 Ry

     iteration # 80     ecut=    40.42 Ry     beta=0.07
     Davidson diagonalization with overlap
     c_bands:  1 eigenvalues not converged
     ethr =  1.01E-09,  avg # of iterations =  3.2

     negative rho (up, down):  5.663E+00 0.000E+00

     total cpu time spent up to now is    21549.0 secs

     total energy              =   -7079.79201008 Ry
     Harris-Foulkes estimate   =   -7079.79201031 Ry
     estimated scf accuracy    <       0.00000495 Ry

     iteration # 81     ecut=    40.42 Ry     beta=0.07
     Davidson diagonalization with overlap
     ethr =  8.34E-10,  avg # of iterations =  1.3

     negative rho (up, down):  5.663E+00 0.000E+00

     total cpu time spent up to now is    21769.7 secs

     total energy              =   -7079.79200909 Ry
     Harris-Foulkes estimate   =   -7079.79201012 Ry
     estimated scf accuracy    <       0.00000424 Ry

     iteration # 82     ecut=    40.42 Ry     beta=0.07
     Davidson diagonalization with overlap
     ethr =  7.14E-10,  avg # of iterations =  5.3

     negative rho (up, down):  5.663E+00 0.000E+00

     total cpu time spent up to now is    22024.2 secs

     total energy              =   -7079.79200915 Ry
     Harris-Foulkes estimate   =   -7079.79200932 Ry
     estimated scf accuracy    <       0.00000260 Ry

     iteration # 83     ecut=    40.42 Ry     beta=0.07
     Davidson diagonalization with overlap
     c_bands:  2 eigenvalues not converged
     c_bands:  2 eigenvalues not converged
     ethr =  4.39E-10,  avg # of iterations =  7.0

     negative rho (up, down):  5.663E+00 0.000E+00

     total cpu time spent up to now is    22282.3 secs

     total energy              =   -7079.79200924 Ry
     Harris-Foulkes estimate   =   -7079.79200939 Ry
     estimated scf accuracy    <       0.00000269 Ry

     iteration # 84     ecut=    40.42 Ry     beta=0.07
     Davidson diagonalization with overlap
     c_bands:  1 eigenvalues not converged
     ethr =  4.39E-10,  avg # of iterations =  3.3

     negative rho (up, down):  5.663E+00 0.000E+00

     total cpu time spent up to now is    22513.9 secs

     total energy              =   -7079.79200917 Ry
     Harris-Foulkes estimate   =   -7079.79200926 Ry
     estimated scf accuracy    <       0.00000245 Ry

     iteration # 85     ecut=    40.42 Ry     beta=0.07
     Davidson diagonalization with overlap
     ethr =  4.12E-10,  avg # of iterations =  1.9

     negative rho (up, down):  5.663E+00 0.000E+00

     total cpu time spent up to now is    22742.7 secs

     total energy              =   -7079.79200918 Ry
     Harris-Foulkes estimate   =   -7079.79200917 Ry
     estimated scf accuracy    <       0.00000240 Ry

     iteration # 86     ecut=    40.42 Ry     beta=0.07
     Davidson diagonalization with overlap
     ethr =  4.04E-10,  avg # of iterations =  1.0

     negative rho (up, down):  5.663E+00 0.000E+00

     total cpu time spent up to now is    22963.1 secs

     total energy              =   -7079.79200913 Ry
     Harris-Foulkes estimate   =   -7079.79200919 Ry
     estimated scf accuracy    <       0.00000228 Ry

     iteration # 87     ecut=    40.42 Ry     beta=0.07
     Davidson diagonalization with overlap
     ethr =  3.83E-10,  avg # of iterations =  1.0

     negative rho (up, down):  5.663E+00 0.000E+00

     total cpu time spent up to now is    23181.2 secs

     total energy              =   -7079.79200918 Ry
     Harris-Foulkes estimate   =   -7079.79200913 Ry
     estimated scf accuracy    <       0.00000228 Ry

     iteration # 88     ecut=    40.42 Ry     beta=0.07
     Davidson diagonalization with overlap
     ethr =  3.83E-10,  avg # of iterations =  1.0

     negative rho (up, down):  5.663E+00 0.000E+00

     total cpu time spent up to now is    23395.4 secs

     total energy              =   -7079.79200919 Ry
     Harris-Foulkes estimate   =   -7079.79200918 Ry
     estimated scf accuracy    <       0.00000226 Ry

     iteration # 89     ecut=    40.42 Ry     beta=0.07
     Davidson diagonalization with overlap
     ethr =  3.80E-10,  avg # of iterations =  1.0

     negative rho (up, down):  5.664E+00 0.000E+00

     total cpu time spent up to now is    23613.6 secs

     total energy              =   -7079.79200896 Ry
     Harris-Foulkes estimate   =   -7079.79200919 Ry
     estimated scf accuracy    <       0.00000231 Ry

     iteration # 90     ecut=    40.42 Ry     beta=0.07
     Davidson diagonalization with overlap
     ethr =  3.80E-10,  avg # of iterations =  1.5

     negative rho (up, down):  5.663E+00 0.000E+00

     total cpu time spent up to now is    23838.3 secs

     total energy              =   -7079.79200906 Ry
     Harris-Foulkes estimate   =   -7079.79200898 Ry
     estimated scf accuracy    <       0.00000211 Ry

     iteration # 91     ecut=    40.42 Ry     beta=0.07
     Davidson diagonalization with overlap
     ethr =  3.56E-10,  avg # of iterations =  2.0

     negative rho (up, down):  5.663E+00 0.000E+00

     total cpu time spent up to now is    24070.4 secs

     total energy              =   -7079.79200919 Ry
     Harris-Foulkes estimate   =   -7079.79200909 Ry
     estimated scf accuracy    <       0.00000182 Ry

     iteration # 92     ecut=    40.42 Ry     beta=0.07
     Davidson diagonalization with overlap
     ethr =  3.06E-10,  avg # of iterations =  1.4

     negative rho (up, down):  5.663E+00 0.000E+00

     total cpu time spent up to now is    24292.9 secs

     total energy              =   -7079.79200907 Ry
     Harris-Foulkes estimate   =   -7079.79200921 Ry
     estimated scf accuracy    <       0.00000160 Ry

     iteration # 93     ecut=    40.42 Ry     beta=0.07
     Davidson diagonalization with overlap
     c_bands:  1 eigenvalues not converged
     ethr =  2.69E-10,  avg # of iterations =  4.7

     negative rho (up, down):  5.663E+00 0.000E+00

     total cpu time spent up to now is    24537.1 secs

     total energy              =   -7079.79200913 Ry
     Harris-Foulkes estimate   =   -7079.79200922 Ry
     estimated scf accuracy    <       0.00000124 Ry

     iteration # 94     ecut=    40.42 Ry     beta=0.07
     Davidson diagonalization with overlap
     ethr =  2.09E-10,  avg # of iterations =  2.3

     negative rho (up, down):  5.663E+00 0.000E+00

     total cpu time spent up to now is    24760.7 secs

     total energy              =   -7079.79200925 Ry
     Harris-Foulkes estimate   =   -7079.79200915 Ry
     estimated scf accuracy    <       0.00000116 Ry

     iteration # 95     ecut=    40.42 Ry     beta=0.07
     Davidson diagonalization with overlap
     ethr =  1.96E-10,  avg # of iterations =  7.7

     negative rho (up, down):  5.663E+00 0.000E+00

     total cpu time spent up to now is    25031.9 secs

     total energy              =   -7079.79200932 Ry
     Harris-Foulkes estimate   =   -7079.79200950 Ry
     estimated scf accuracy    <       0.00000548 Ry

     iteration # 96     ecut=    40.42 Ry     beta=0.07
     Davidson diagonalization with overlap
     ethr =  1.96E-10,  avg # of iterations =  1.9

     negative rho (up, down):  5.663E+00 0.000E+00

     total cpu time spent up to now is    25255.7 secs

     total energy              =   -7079.79200905 Ry
     Harris-Foulkes estimate   =   -7079.79200936 Ry
     estimated scf accuracy    <       0.00000389 Ry

     iteration # 97     ecut=    40.42 Ry     beta=0.07
     Davidson diagonalization with overlap
     c_bands:  1 eigenvalues not converged
     ethr =  1.96E-10,  avg # of iterations =  4.1

     negative rho (up, down):  5.663E+00 0.000E+00

     total cpu time spent up to now is    25493.2 secs

     total energy              =   -7079.79200925 Ry
     Harris-Foulkes estimate   =   -7079.79200908 Ry
     estimated scf accuracy    <       0.00000259 Ry

     iteration # 98     ecut=    40.42 Ry     beta=0.07
     Davidson diagonalization with overlap
     ethr =  1.96E-10,  avg # of iterations =  1.1

     negative rho (up, down):  5.663E+00 0.000E+00

     total cpu time spent up to now is    25713.6 secs

     total energy              =   -7079.79200886 Ry
     Harris-Foulkes estimate   =   -7079.79200927 Ry
     estimated scf accuracy    <       0.00000349 Ry

     iteration # 99     ecut=    40.42 Ry     beta=0.07
     Davidson diagonalization with overlap
     ethr =  1.96E-10,  avg # of iterations =  6.9

     negative rho (up, down):  5.663E+00 0.000E+00

     total cpu time spent up to now is    25997.9 secs

     total energy              =   -7079.79200906 Ry
     Harris-Foulkes estimate   =   -7079.79200925 Ry
     estimated scf accuracy    <       0.00000129 Ry

     iteration #100     ecut=    40.42 Ry     beta=0.07
     Davidson diagonalization with overlap
     c_bands:  1 eigenvalues not converged
     ethr =  1.96E-10,  avg # of iterations =  3.2

     negative rho (up, down):  5.663E+00 0.000E+00

     total cpu time spent up to now is    26230.3 secs

     total energy              =   -7079.79200912 Ry
     Harris-Foulkes estimate   =   -7079.79200913 Ry
     estimated scf accuracy    <       0.00000054 Ry

     iteration #101     ecut=    40.42 Ry     beta=0.07
     Davidson diagonalization with overlap
     ethr =  9.10E-11,  avg # of iterations =  1.3

     negative rho (up, down):  5.663E+00 0.000E+00

     total cpu time spent up to now is    26457.5 secs

     total energy              =   -7079.79200906 Ry
     Harris-Foulkes estimate   =   -7079.79200913 Ry
     estimated scf accuracy    <       0.00000046 Ry

     iteration #102     ecut=    40.42 Ry     beta=0.07
     Davidson diagonalization with overlap
     c_bands:  1 eigenvalues not converged
     ethr =  7.80E-11,  avg # of iterations =  8.7

     negative rho (up, down):  5.663E+00 0.000E+00

     total cpu time spent up to now is    26726.0 secs

     total energy              =   -7079.79200912 Ry
     Harris-Foulkes estimate   =   -7079.79200912 Ry
     estimated scf accuracy    <       0.00000041 Ry

     iteration #103     ecut=    40.42 Ry     beta=0.07
     Davidson diagonalization with overlap
     ethr =  6.89E-11,  avg # of iterations =  2.8

     negative rho (up, down):  5.663E+00 0.000E+00

     total cpu time spent up to now is    26946.2 secs

     End of self-consistent calculation

          k = 0.0000 0.0000 0.0000 ( 92333 PWs)   bands (ev):

   -53.6532 -53.6523 -53.6518 -53.6209 -53.6198 -53.6192 -53.5793 -53.5789
   -53.5787 -53.5784 -53.5776 -53.5774 -53.5666 -53.5662 -53.5658 -53.5656
   -53.5649 -53.5646 -53.4771 -53.4756 -53.4743 -53.4742 -53.4733 -53.4727
   -53.4518 -53.4511 -53.4501 -53.4490 -53.4485 -53.4478 -53.4475 -53.4473
   -53.4466 -53.4465 -53.4459 -53.4456 -53.4147 -53.4129 -53.4120 -53.4114
   -53.4109 -53.4108 -53.3908 -53.3892 -53.3883 -53.3428 -53.3421 -53.3416
   -53.3409 -53.3405 -53.3398 -53.3363 -53.3349 -53.3343 -53.3022 -53.2977
   -53.2969 -53.2964 -53.2955 -53.2952 -53.2943 -53.2910 -53.2908 -53.2575
   -53.2571 -53.2436 -53.2410 -53.2376 -53.2373 -53.2371 -53.2340 -53.1752
   -53.1698 -53.1681 -53.1675 -53.1670 -53.1651 -53.1642 -53.1634 -53.1620
   -53.1000 -53.0948 -53.0929 -53.0924 -53.0914 -53.0895 -53.0892 -53.0879
   -53.0856 -53.0722 -53.0701 -53.0678 -53.0672 -53.0667 -53.0644 -53.0602
   -23.5017 -23.2257 -21.9582 -21.5229 -21.3089 -21.0183 -20.6919 -20.5599
   -15.3025 -14.3700 -12.8770 -11.7792 -11.0369 -10.1748  -9.4820  -9.2197
    -8.8940  -8.5342  -8.2830  -7.8231  -7.7949  -7.7299  -7.7078  -7.7071
    -7.7063  -7.7033  -7.6915  -7.5051  -7.4402  -7.0927  -7.0356  -7.0323
    -7.0293  -6.9735  -6.9544  -6.9507  -6.9363  -6.6501  -6.4616  -6.4256
    -6.4204  -6.4195  -6.4191  -6.4186  -6.3055  -6.1839  -6.1782  -6.1680
    -6.1588  -6.1548  -6.1541  -6.1540  -6.1529  -6.1438  -5.8530  -5.6631
    -5.6055  -5.6042  -5.6031  -5.6026  -5.6014  -5.5987  -5.5815  -5.5698
    -5.5687  -5.5679  -5.5651  -5.5641  -5.4589  -5.2722  -5.2688  -5.2680
    -5.2663  -5.2592  -5.2503  -5.0846  -4.6914  -4.6818  -4.6742  -4.5559
    -4.5542  -4.5494  -4.5463  -4.5458  -4.5445  -4.5161  -4.4096  -4.3709
    -4.3591  -4.3549  -4.3501  -4.3489  -4.3479  -4.2780  -4.2631  -4.2600
    -4.2565  -4.2544  -4.2521  -4.2117  -4.2117  -4.0750  -4.0544  -4.0488
    -4.0445  -4.0426  -4.0419  -4.0394  -4.0307  -4.0304  -4.0165  -4.0051
    -4.0022  -3.9993  -3.9947  -3.9878  -3.8224  -3.7417  -3.7296  -3.7266
    -3.7217  -3.7203  -3.7174  -3.6679  -3.6419  -3.6408  -3.6388  -3.6357
    -3.6353  -3.4899  -3.4556  -3.4074  -3.4043  -3.3946  -3.3125  -3.1832
    -3.1800  -3.1798  -3.1785  -3.1773  -3.1761  -2.6893  -2.6874  -2.6845
    -2.6840  -2.6837  -2.6830  -2.6517  -2.5966  -2.5751  -2.5527  -2.5513
    -2.5452  -2.5404  -2.5243  -2.4763  -2.4717  -2.4616  -2.4130  -2.2417
    -2.1499  -2.1489  -2.1454  -2.1449  -2.1442  -2.1433  -2.1350  -2.1328
    -2.1228  -2.0930  -2.0897  -2.0890  -2.0865  -2.0853  -2.0809  -1.9210
    -1.9135  -1.8965  -1.8952  -1.8924  -1.8905  -1.8863  -1.8819  -1.8480
    -1.7983  -1.5430  -1.3811  -1.3780  -1.3762  -1.1457  -1.1373  -1.1357
    -1.1339  -1.1319  -1.1307  -1.1306  -1.1291  -0.9817  -0.9647  -0.9614
    -0.9599  -0.9590  -0.9578  -0.5858  -0.5709  -0.5704  -0.5702  -0.5677
    -0.5499  -0.5459  -0.5230

          k = 0.0000 0.0260 0.0000 ( 92317 PWs)   bands (ev):

   -53.6453 -53.6448 -53.6387 -53.6132 -53.6125 -53.6067 -53.5967 -53.5961
   -53.5874 -53.5864 -53.5730 -53.5720 -53.5647 -53.5644 -53.5634 -53.5628
   -53.5511 -53.5508 -53.5426 -53.5137 -53.5105 -53.5094 -53.4851 -53.4844
   -53.4822 -53.4802 -53.4436 -53.4428 -53.4412 -53.4397 -53.4393 -53.4388
   -53.4216 -53.4197 -53.4138 -53.4127 -53.4051 -53.3974 -53.3972 -53.3962
   -53.3952 -53.3859 -53.3808 -53.3753 -53.3744 -53.3602 -53.3557 -53.3553
   -53.3442 -53.3438 -53.3351 -53.3342 -53.3325 -53.3224 -53.3122 -53.3108
   -53.3098 -53.3056 -53.3034 -53.2954 -53.2944 -53.2937 -53.2811 -53.2656
   -53.2603 -53.2587 -53.2474 -53.2444 -53.2269 -53.2228 -53.2155 -53.1891
   -53.1847 -53.1759 -53.1684 -53.1680 -53.1667 -53.1653 -53.1493 -53.1460
   -53.1049 -53.1002 -53.0937 -53.0929 -53.0923 -53.0905 -53.0868 -53.0821
   -53.0805 -53.0740 -53.0714 -53.0701 -53.0673 -53.0656 -53.0637 -53.0600
   -23.5017 -23.2257 -21.9582 -21.5229 -21.3089 -21.0183 -20.6919 -20.5599
   -15.3025 -14.3700 -12.8769 -11.7793 -11.0366 -10.1745  -9.3551  -9.2093
    -8.8940  -8.5361  -8.3372  -8.2799  -7.9289  -7.9179  -7.7715  -7.6813
    -7.5105  -7.4677  -7.3560  -7.3485  -7.2621  -7.0906  -7.0454  -6.9768
    -6.9340  -6.9308  -6.8659  -6.8220  -6.8183  -6.7593  -6.6504  -6.4877
    -6.4600  -6.4512  -6.4334  -6.4184  -6.3434  -6.3135  -6.3042  -6.2864
    -6.2602  -6.1295  -6.1263  -6.1092  -5.9997  -5.9972  -5.9441  -5.9409
    -5.8520  -5.7541  -5.7465  -5.7310  -5.7306  -5.6858  -5.6391  -5.6368
    -5.6220  -5.6114  -5.5831  -5.5538  -5.5468  -5.4830  -5.4505  -5.4153
    -5.0988  -5.0786  -5.0680  -4.8689  -4.7811  -4.7797  -4.6953  -4.6522
    -4.6414  -4.6313  -4.5271  -4.4495  -4.4470  -4.4349  -4.4295  -4.4234
    -4.4194  -4.4139  -4.3648  -4.3443  -4.3396  -4.3321  -4.3284  -4.2605
    -4.2264  -4.2212  -4.1875  -4.1789  -4.1448  -4.1377  -4.1329  -4.1250
    -4.1112  -4.1011  -4.0863  -4.0301  -4.0218  -4.0151  -3.9379  -3.8660
    -3.7991  -3.7934  -3.7898  -3.7662  -3.7287  -3.7189  -3.6933  -3.6817
    -3.6443  -3.5950  -3.5628  -3.5375  -3.5082  -3.5061  -3.4878  -3.4799
    -3.4674  -3.4371  -3.4127  -3.3770  -3.3357  -3.3088  -3.2837  -3.2625
    -3.2493  -3.2061  -3.1739  -3.1697  -3.1319  -3.1309  -2.8453  -2.8405
    -2.7758  -2.6749  -2.6409  -2.5949  -2.5720  -2.5642  -2.5566  -2.5385
    -2.4895  -2.4764  -2.4304  -2.3384  -2.3076  -2.2629  -2.1922  -2.1919
    -2.1850  -2.1747  -2.1732  -2.1660  -2.1167  -2.1095  -2.0892  -2.0725
    -2.0586  -2.0528  -2.0423  -2.0385  -1.9801  -1.9778  -1.9116  -1.8867
    -1.8786  -1.8382  -1.8200  -1.7857  -1.7115  -1.7088  -1.7077  -1.7021
    -1.6339  -1.5519  -1.5057  -1.4635  -1.4627  -1.3956  -1.2517  -1.2482
    -1.2263  -1.2218  -1.1391  -1.1298  -1.1220  -1.1071  -1.1019  -1.0361
    -1.0288  -0.9964  -0.9782  -0.9736  -0.9715  -0.9617  -0.7202  -0.6931
    -0.6894  -0.6822  -0.6354

          k = 0.0000-0.0520 0.0000 ( 92358 PWs)   bands (ev):

   -53.6250 -53.6246 -53.6244 -53.6230 -53.6015 -53.5996 -53.5944 -53.5942
   -53.5938 -53.5920 -53.5898 -53.5888 -53.5707 -53.5686 -53.5595 -53.5586
   -53.5423 -53.5422 -53.5404 -53.5398 -53.5224 -53.5222 -53.5212 -53.5206
   -53.4977 -53.4953 -53.4532 -53.4511 -53.4274 -53.4250 -53.4179 -53.4175
   -53.4162 -53.4152 -53.4144 -53.4123 -53.3819 -53.3815 -53.3801 -53.3793
   -53.3761 -53.3750 -53.3683 -53.3679 -53.3662 -53.3652 -53.3467 -53.3450
   -53.3396 -53.3394 -53.3380 -53.3377 -53.3328 -53.3315 -53.3275 -53.3260
   -53.3246 -53.3232 -53.3068 -53.3057 -53.2973 -53.2962 -53.2713 -53.2705
   -53.2692 -53.2680 -53.2496 -53.2465 -53.2107 -53.2088 -53.2052 -53.2034
   -53.1945 -53.1914 -53.1678 -53.1676 -53.1675 -53.1657 -53.1404 -53.1369
   -53.1107 -53.1064 -53.0933 -53.0926 -53.0925 -53.0902 -53.0819 -53.0808
   -53.0766 -53.0755 -53.0738 -53.0725 -53.0674 -53.0652 -53.0633 -53.0598
   -23.5017 -23.2257 -21.9582 -21.5229 -21.3089 -21.0183 -20.6919 -20.5599
   -15.3024 -14.3701 -12.8769 -11.7794 -11.0363 -10.1741  -9.2463  -8.9466
    -8.9293  -8.8675  -8.5300  -8.2834  -7.9981  -7.9860  -7.7719  -7.5112
    -7.4615  -7.2882  -7.2847  -7.1149  -7.0924  -7.0669  -6.9773  -6.9048
    -6.8988  -6.8975  -6.8924  -6.6928  -6.6850  -6.6682  -6.6575  -6.6570
    -6.6558  -6.6429  -6.4777  -6.4584  -6.4540  -6.4529  -6.4030  -6.3858
    -6.2903  -6.0252  -6.0216  -6.0207  -6.0186  -5.9856  -5.9826  -5.9806
    -5.9769  -5.9357  -5.9316  -5.9303  -5.9257  -5.8445  -5.7152  -5.6885
    -5.6355  -5.5830  -5.5770  -5.5745  -5.5591  -5.5475  -5.5444  -5.4437
    -5.0899  -5.0342  -5.0320  -4.8584  -4.8583  -4.5899  -4.5826  -4.5721
    -4.5385  -4.5341  -4.5325  -4.5136  -4.5082  -4.4894  -4.4517  -4.4453
    -4.4218  -4.4189  -4.4166  -4.4151  -4.3932  -4.3908  -4.3359  -4.3295
    -4.3169  -4.3006  -4.2963  -4.2947  -4.2240  -4.2130  -4.2047  -4.2036
    -4.0378  -3.9849  -3.9730  -3.9689  -3.9651  -3.8431  -3.8184  -3.8176
    -3.7607  -3.7574  -3.7555  -3.7425  -3.7129  -3.6993  -3.6739  -3.6725
    -3.6501  -3.6153  -3.5617  -3.4980  -3.4931  -3.4646  -3.3194  -3.3045
    -3.3006  -3.2549  -3.2514  -3.2498  -3.2476  -3.1813  -3.1768  -3.1372
    -3.1130  -2.9499  -2.9433  -2.9322  -2.9245  -2.9232  -2.9056  -2.8657
    -2.8603  -2.7030  -2.6705  -2.6520  -2.6435  -2.6385  -2.6256  -2.5997
    -2.5848  -2.5554  -2.4372  -2.4139  -2.3015  -2.2933  -2.2828  -2.2755
    -2.2737  -2.2595  -2.2026  -2.1751  -2.1730  -2.1678  -2.0811  -1.9900
    -1.9674  -1.8342  -1.7653  -1.7622  -1.7603  -1.7587  -1.6697  -1.6673
    -1.6639  -1.6620  -1.6027  -1.5876  -1.5828  -1.5798  -1.5710  -1.5671
    -1.5529  -1.5398  -1.5370  -1.5237  -1.5176  -1.4146  -1.4032  -1.3967
    -1.3733  -1.3122  -1.3062  -1.2798  -1.2720  -1.2706  -1.2632  -1.1243
    -1.1182  -1.0505  -1.0484  -1.0242  -1.0215  -0.9524  -0.9434  -0.9413
    -0.9372  -0.8567  -0.8560

          k = 0.0225 0.0390 0.0000 ( 92317 PWs)   bands (ev):

   -53.6358 -53.6199 -53.6190 -53.6139 -53.6130 -53.6036 -53.5919 -53.5904
   -53.5889 -53.5881 -53.5830 -53.5821 -53.5723 -53.5717 -53.5675 -53.5653
   -53.5641 -53.5452 -53.5439 -53.5428 -53.5209 -53.5196 -53.5187 -53.4837
   -53.4816 -53.4790 -53.4703 -53.4688 -53.4553 -53.4541 -53.4220 -53.4085
   -53.4074 -53.4020 -53.4018 -53.3902 -53.3887 -53.3833 -53.3796 -53.3793
   -53.3753 -53.3743 -53.3709 -53.3618 -53.3613 -53.3568 -53.3561 -53.3549
   -53.3544 -53.3472 -53.3384 -53.3370 -53.3315 -53.3268 -53.3255 -53.3188
   -53.3182 -53.3177 -53.3158 -53.3149 -53.3019 -53.2793 -53.2786 -53.2710
   -53.2668 -53.2640 -53.2619 -53.2298 -53.2279 -53.2092 -53.2021 -53.2011
   -53.1869 -53.1842 -53.1813 -53.1798 -53.1600 -53.1534 -53.1508 -53.1314
   -53.1142 -53.1016 -53.0987 -53.0954 -53.0881 -53.0860 -53.0830 -53.0817
   -53.0784 -53.0763 -53.0743 -53.0695 -53.0681 -53.0654 -53.0633 -53.0598
   -23.5017 -23.2257 -21.9582 -21.5229 -21.3089 -21.0183 -20.6919 -20.5599
   -15.3025 -14.3700 -12.8769 -11.7794 -11.0363 -10.1742  -9.2480  -9.0520
    -8.8935  -8.5707  -8.5569  -8.5131  -8.2770  -7.7768  -7.5126  -7.4662
    -7.4093  -7.3677  -7.3561  -7.1064  -7.0521  -7.0370  -6.9786  -6.9624
    -6.9516  -6.9293  -6.9213  -6.8094  -6.7086  -6.7065  -6.6808  -6.6747
    -6.6481  -6.6336  -6.5461  -6.4732  -6.4642  -6.3359  -6.2623  -6.2571
    -6.2522  -6.2348  -6.0939  -6.0843  -6.0379  -6.0085  -6.0011  -5.9424
    -5.9412  -5.8613  -5.8346  -5.8285  -5.8221  -5.8173  -5.8111  -5.7741
    -5.7717  -5.6110  -5.5697  -5.5024  -5.4772  -5.4512  -5.4117  -5.2910
    -5.2867  -5.0887  -4.9487  -4.9424  -4.9309  -4.7674  -4.7663  -4.6204
    -4.6199  -4.5821  -4.5634  -4.5578  -4.5368  -4.5165  -4.4912  -4.4569
    -4.4493  -4.4283  -4.4235  -4.4188  -4.4176  -4.4146  -4.4055  -4.3106
    -4.2957  -4.2900  -4.2759  -4.2720  -4.1410  -4.1155  -4.0969  -4.0886
    -4.0285  -3.9673  -3.9463  -3.9017  -3.8734  -3.8174  -3.7950  -3.7817
    -3.7675  -3.7573  -3.7470  -3.6676  -3.5589  -3.5570  -3.5517  -3.5477
    -3.5165  -3.4942  -3.4842  -3.4648  -3.4474  -3.4171  -3.4156  -3.3800
    -3.3658  -3.3574  -3.3192  -3.2842  -3.2672  -3.2132  -3.2101  -3.1908
    -3.1789  -3.0655  -3.0616  -3.0586  -3.0459  -3.0218  -3.0151  -2.9838
    -2.8216  -2.8065  -2.7345  -2.6375  -2.6196  -2.5773  -2.4937  -2.4587
    -2.4515  -2.4375  -2.4228  -2.4184  -2.3640  -2.3039  -2.2729  -2.2218
    -2.2164  -2.2121  -2.1709  -2.1626  -2.1463  -2.0897  -2.0638  -2.0445
    -2.0226  -1.9417  -1.9381  -1.8759  -1.8627  -1.8176  -1.6756  -1.6708
    -1.6662  -1.6554  -1.6530  -1.6425  -1.6409  -1.6305  -1.5713  -1.5667
    -1.5639  -1.5473  -1.5257  -1.5108  -1.4446  -1.4406  -1.3989  -1.3940
    -1.3642  -1.3443  -1.3295  -1.3015  -1.1781  -1.1679  -1.1664  -1.1410
    -1.1343  -1.1004  -1.0966  -1.0201  -1.0167  -0.9958  -0.9819  -0.9798
    -0.9686  -0.8978  -0.8959

          k =-0.0225 0.0130 0.0000 ( 92317 PWs)   bands (ev):

   -53.6454 -53.6444 -53.6391 -53.6132 -53.6122 -53.6070 -53.5966 -53.5958
   -53.5875 -53.5869 -53.5726 -53.5720 -53.5652 -53.5641 -53.5638 -53.5627
   -53.5513 -53.5507 -53.5429 -53.5139 -53.5101 -53.5096 -53.4850 -53.4845
   -53.4813 -53.4805 -53.4426 -53.4420 -53.4412 -53.4409 -53.4401 -53.4382
   -53.4206 -53.4203 -53.4134 -53.4129 -53.4054 -53.3987 -53.3964 -53.3962
   -53.3952 -53.3857 -53.3810 -53.3751 -53.3746 -53.3598 -53.3558 -53.3554
   -53.3450 -53.3433 -53.3352 -53.3347 -53.3321 -53.3221 -53.3121 -53.3109
   -53.3098 -53.3058 -53.3034 -53.2951 -53.2947 -53.2938 -53.2808 -53.2658
   -53.2600 -53.2586 -53.2471 -53.2450 -53.2258 -53.2238 -53.2152 -53.1884
   -53.1860 -53.1759 -53.1695 -53.1666 -53.1664 -53.1650 -53.1490 -53.1468
   -53.1038 -53.1010 -53.0955 -53.0918 -53.0913 -53.0903 -53.0875 -53.0825
   -53.0798 -53.0742 -53.0719 -53.0695 -53.0668 -53.0663 -53.0638 -53.0599
   -23.5017 -23.2257 -21.9582 -21.5229 -21.3089 -21.0183 -20.6919 -20.5599
   -15.3025 -14.3700 -12.8770 -11.7792 -11.0367 -10.1746  -9.3534  -9.2107
    -8.8939  -8.5344  -8.3496  -8.2673  -7.9287  -7.9204  -7.7754  -7.6809
    -7.5103  -7.4667  -7.3568  -7.3405  -7.2650  -7.0874  -7.0517  -6.9744
    -6.9361  -6.9307  -6.8666  -6.8229  -6.8162  -6.7590  -6.6499  -6.4866
    -6.4601  -6.4515  -6.4328  -6.4206  -6.3434  -6.3131  -6.3039  -6.2881
    -6.2600  -6.1309  -6.1234  -6.1113  -6.0016  -5.9962  -5.9479  -5.9402
    -5.8505  -5.7590  -5.7463  -5.7318  -5.7307  -5.6563  -5.6394  -5.6373
    -5.6254  -5.6117  -5.5931  -5.5555  -5.5481  -5.4839  -5.4478  -5.4230
    -5.0885  -5.0774  -5.0758  -4.8695  -4.7806  -4.7787  -4.6971  -4.6500
    -4.6406  -4.6342  -4.5226  -4.4492  -4.4457  -4.4357  -4.4278  -4.4228
    -4.4199  -4.4134  -4.3662  -4.3443  -4.3427  -4.3323  -4.3274  -4.2609
    -4.2241  -4.2210  -4.1917  -4.1785  -4.1438  -4.1354  -4.1346  -4.1252
    -4.1107  -4.0997  -4.0875  -4.0318  -4.0180  -4.0107  -3.9379  -3.8711
    -3.7965  -3.7929  -3.7895  -3.7614  -3.7309  -3.7221  -3.6892  -3.6838
    -3.6654  -3.5997  -3.5644  -3.5319  -3.5083  -3.5078  -3.4855  -3.4774
    -3.4670  -3.4349  -3.4128  -3.3776  -3.3247  -3.3119  -3.2882  -3.2619
    -3.2431  -3.2054  -3.1759  -3.1710  -3.1319  -3.1300  -2.8456  -2.8413
    -2.7745  -2.6809  -2.6379  -2.5884  -2.5852  -2.5604  -2.5493  -2.5330
    -2.4956  -2.4753  -2.4271  -2.3374  -2.3130  -2.2644  -2.1931  -2.1917
    -2.1775  -2.1760  -2.1731  -2.1633  -2.1186  -2.1140  -2.0911  -2.0717
    -2.0590  -2.0532  -2.0423  -2.0373  -1.9816  -1.9779  -1.9138  -1.8881
    -1.8805  -1.8339  -1.8122  -1.7890  -1.7151  -1.7087  -1.7082  -1.7019
    -1.6340  -1.5461  -1.5148  -1.4655  -1.4607  -1.3942  -1.2549  -1.2478
    -1.2250  -1.2226  -1.1357  -1.1281  -1.1203  -1.1098  -1.1010  -1.0342
    -1.0287  -1.0012  -0.9769  -0.9728  -0.9685  -0.9642  -0.7201  -0.6924
    -0.6899  -0.6723  -0.6435

          k = 0.0225 0.0130 0.0000 ( 92317 PWs)   bands (ev):

   -53.6453 -53.6445 -53.6391 -53.6132 -53.6121 -53.6071 -53.5964 -53.5957
   -53.5877 -53.5867 -53.5726 -53.5717 -53.5652 -53.5649 -53.5631 -53.5628
   -53.5512 -53.5509 -53.5429 -53.5140 -53.5103 -53.5093 -53.4851 -53.4845
   -53.4815 -53.4801 -53.4433 -53.4418 -53.4413 -53.4408 -53.4397 -53.4381
   -53.4212 -53.4198 -53.4135 -53.4127 -53.4054 -53.3985 -53.3968 -53.3961
   -53.3952 -53.3857 -53.3811 -53.3752 -53.3745 -53.3598 -53.3559 -53.3554
   -53.3450 -53.3433 -53.3354 -53.3342 -53.3323 -53.3221 -53.3117 -53.3110
   -53.3100 -53.3059 -53.3035 -53.2952 -53.2946 -53.2937 -53.2808 -53.2659
   -53.2599 -53.2583 -53.2473 -53.2453 -53.2259 -53.2233 -53.2155 -53.1882
   -53.1852 -53.1763 -53.1723 -53.1665 -53.1650 -53.1643 -53.1490 -53.1468
   -53.1042 -53.1000 -53.0972 -53.0924 -53.0901 -53.0890 -53.0876 -53.0830
   -53.0802 -53.0744 -53.0720 -53.0692 -53.0670 -53.0660 -53.0638 -53.0600
   -23.5017 -23.2257 -21.9582 -21.5229 -21.3089 -21.0183 -20.6919 -20.5599
   -15.3025 -14.3700 -12.8770 -11.7793 -11.0366 -10.1745  -9.3540  -9.2102
    -8.8941  -8.5358  -8.3394  -8.2786  -7.9317  -7.9160  -7.7719  -7.6812
    -7.5090  -7.4662  -7.3533  -7.3445  -7.2695  -7.0922  -7.0477  -6.9724
    -6.9347  -6.9319  -6.8664  -6.8209  -6.8177  -6.7593  -6.6501  -6.4878
    -6.4578  -6.4519  -6.4328  -6.4198  -6.3427  -6.3130  -6.3038  -6.2875
    -6.2620  -6.1327  -6.1229  -6.1094  -6.0000  -5.9970  -5.9470  -5.9404
    -5.8538  -5.7631  -5.7472  -5.7316  -5.7301  -5.6585  -5.6397  -5.6364
    -5.6212  -5.6119  -5.5886  -5.5567  -5.5473  -5.4874  -5.4495  -5.4202
    -5.0959  -5.0753  -5.0703  -4.8698  -4.7816  -4.7790  -4.6954  -4.6517
    -4.6387  -4.6347  -4.5236  -4.4485  -4.4460  -4.4345  -4.4275  -4.4262
    -4.4199  -4.4121  -4.3620  -4.3540  -4.3442  -4.3301  -4.3276  -4.2610
    -4.2298  -4.2209  -4.1836  -4.1794  -4.1489  -4.1394  -4.1369  -4.1251
    -4.1107  -4.1030  -4.0852  -4.0237  -4.0199  -4.0127  -3.9382  -3.8594
    -3.7981  -3.7925  -3.7898  -3.7611  -3.7378  -3.7189  -3.6922  -3.6837
    -3.6303  -3.5862  -3.5633  -3.5380  -3.5097  -3.5062  -3.4897  -3.4876
    -3.4668  -3.4349  -3.4129  -3.3766  -3.3490  -3.3029  -3.2863  -3.2622
    -3.2582  -3.2059  -3.1729  -3.1716  -3.1319  -3.1300  -2.8437  -2.8400
    -2.7771  -2.6635  -2.6354  -2.5999  -2.5754  -2.5678  -2.5541  -2.5404
    -2.4895  -2.4766  -2.4272  -2.3385  -2.3256  -2.2475  -2.1935  -2.1919
    -2.1823  -2.1752  -2.1725  -2.1635  -2.1184  -2.1147  -2.0885  -2.0692
    -2.0558  -2.0524  -2.0444  -2.0375  -1.9812  -1.9791  -1.9108  -1.8865
    -1.8825  -1.8296  -1.8220  -1.7986  -1.7102  -1.7084  -1.7071  -1.7005
    -1.6339  -1.5473  -1.5093  -1.4650  -1.4635  -1.3937  -1.2526  -1.2472
    -1.2265  -1.2235  -1.1347  -1.1287  -1.1217  -1.1082  -1.1020  -1.0345
    -1.0297  -0.9927  -0.9753  -0.9732  -0.9715  -0.9662  -0.7201  -0.6918
    -0.6900  -0.6686  -0.6584

          k = 0.0450-0.0260 0.0000 ( 92358 PWs)   bands (ev):

   -53.6250 -53.6242 -53.6236 -53.6234 -53.6018 -53.6000 -53.5943 -53.5936
   -53.5931 -53.5928 -53.5900 -53.5893 -53.5708 -53.5691 -53.5597 -53.5588
   -53.5423 -53.5415 -53.5405 -53.5402 -53.5228 -53.5221 -53.5211 -53.5205
   -53.4966 -53.4958 -53.4521 -53.4515 -53.4263 -53.4256 -53.4189 -53.4167
   -53.4165 -53.4154 -53.4133 -53.4131 -53.3820 -53.3810 -53.3800 -53.3795
   -53.3755 -53.3750 -53.3692 -53.3670 -53.3668 -53.3656 -53.3470 -53.3454
   -53.3398 -53.3391 -53.3382 -53.3375 -53.3330 -53.3321 -53.3272 -53.3264
   -53.3238 -53.3234 -53.3060 -53.3059 -53.2974 -53.2966 -53.2719 -53.2699
   -53.2684 -53.2683 -53.2491 -53.2472 -53.2100 -53.2069 -53.2061 -53.2049
   -53.1939 -53.1925 -53.1694 -53.1666 -53.1659 -53.1658 -53.1402 -53.1379
   -53.1093 -53.1068 -53.0962 -53.0916 -53.0908 -53.0901 -53.0831 -53.0795
   -53.0772 -53.0757 -53.0734 -53.0725 -53.0666 -53.0660 -53.0634 -53.0597
   -23.5017 -23.2257 -21.9582 -21.5229 -21.3089 -21.0183 -20.6919 -20.5599
   -15.3025 -14.3700 -12.8769 -11.7792 -11.0365 -10.1744  -9.2432  -8.9495
    -8.9323  -8.8632  -8.5341  -8.2781  -7.9988  -7.9890  -7.7754  -7.5114
    -7.4548  -7.2889  -7.2841  -7.0967  -7.0925  -7.0871  -6.9737  -6.9083
    -6.8994  -6.8983  -6.8919  -6.6879  -6.6861  -6.6683  -6.6625  -6.6569
    -6.6554  -6.6423  -6.4780  -6.4581  -6.4540  -6.4526  -6.4014  -6.3880
    -6.2915  -6.0254  -6.0227  -6.0210  -6.0187  -5.9889  -5.9824  -5.9794
    -5.9772  -5.9349  -5.9341  -5.9298  -5.9268  -5.8416  -5.6950  -5.6887
    -5.6324  -5.5861  -5.5777  -5.5750  -5.5646  -5.5485  -5.5466  -5.4523
    -5.0867  -5.0352  -5.0330  -4.8573  -4.8546  -4.5848  -4.5834  -4.5666
    -4.5367  -4.5334  -4.5292  -4.5253  -4.5110  -4.4878  -4.4499  -4.4445
    -4.4215  -4.4179  -4.4162  -4.4128  -4.3927  -4.3912  -4.3348  -4.3323
    -4.3113  -4.3044  -4.3009  -4.2928  -4.2235  -4.2133  -4.2074  -4.2033
    -4.0348  -3.9816  -3.9735  -3.9696  -3.9665  -3.8386  -3.8202  -3.8172
    -3.7634  -3.7573  -3.7533  -3.7422  -3.7184  -3.7021  -3.6749  -3.6726
    -3.6708  -3.6166  -3.5604  -3.5064  -3.4836  -3.4430  -3.3254  -3.3014
    -3.2996  -3.2542  -3.2512  -3.2493  -3.2460  -3.1861  -3.1762  -3.1319
    -3.1173  -2.9535  -2.9424  -2.9377  -2.9237  -2.9227  -2.9051  -2.8669
    -2.8608  -2.7010  -2.6687  -2.6487  -2.6435  -2.6348  -2.6331  -2.5974
    -2.5740  -2.5619  -2.4365  -2.4078  -2.3092  -2.2910  -2.2855  -2.2758
    -2.2724  -2.2477  -2.2048  -2.1837  -2.1750  -2.1736  -2.0727  -1.9904
    -1.9669  -1.8378  -1.7708  -1.7629  -1.7612  -1.7585  -1.6745  -1.6665
    -1.6619  -1.6602  -1.5903  -1.5838  -1.5825  -1.5815  -1.5724  -1.5687
    -1.5551  -1.5409  -1.5353  -1.5244  -1.5183  -1.4332  -1.4038  -1.3936
    -1.3686  -1.3103  -1.3066  -1.2748  -1.2730  -1.2698  -1.2641  -1.1228
    -1.1166  -1.0506  -1.0485  -1.0231  -1.0211  -0.9533  -0.9433  -0.9398
    -0.9391  -0.8569  -0.8566

          k =-0.0450-0.0260 0.0000 ( 92358 PWs)   bands (ev):

   -53.6253 -53.6247 -53.6235 -53.6226 -53.6022 -53.5994 -53.5950 -53.5940
   -53.5929 -53.5915 -53.5902 -53.5893 -53.5714 -53.5685 -53.5600 -53.5591
   -53.5425 -53.5413 -53.5405 -53.5402 -53.5231 -53.5222 -53.5211 -53.5201
   -53.4971 -53.4951 -53.4526 -53.4509 -53.4268 -53.4249 -53.4201 -53.4162
   -53.4160 -53.4156 -53.4140 -53.4123 -53.3823 -53.3811 -53.3800 -53.3793
   -53.3759 -53.3746 -53.3702 -53.3667 -53.3659 -53.3656 -53.3474 -53.3450
   -53.3402 -53.3385 -53.3384 -53.3375 -53.3331 -53.3319 -53.3276 -53.3264
   -53.3246 -53.3227 -53.3070 -53.3048 -53.2977 -53.2964 -53.2720 -53.2696
   -53.2694 -53.2671 -53.2493 -53.2474 -53.2105 -53.2073 -53.2064 -53.2029
   -53.1940 -53.1923 -53.1726 -53.1660 -53.1654 -53.1644 -53.1400 -53.1379
   -53.1101 -53.1060 -53.0975 -53.0916 -53.0904 -53.0887 -53.0815 -53.0809
   -53.0788 -53.0754 -53.0744 -53.0712 -53.0668 -53.0655 -53.0634 -53.0598
   -23.5017 -23.2257 -21.9582 -21.5229 -21.3089 -21.0183 -20.6919 -20.5599
   -15.3025 -14.3700 -12.8769 -11.7794 -11.0363 -10.1742  -9.2442  -8.9549
    -8.9249  -8.8654  -8.5321  -8.2824  -8.0005  -7.9847  -7.7724  -7.5092
    -7.4567  -7.2892  -7.2833  -7.1241  -7.0934  -7.0658  -6.9724  -6.9046
    -6.8992  -6.8974  -6.8934  -6.6926  -6.6845  -6.6636  -6.6593  -6.6573
    -6.6567  -6.6441  -6.4708  -6.4562  -6.4542  -6.4537  -6.4039  -6.3874
    -6.2991  -6.0254  -6.0233  -6.0210  -6.0184  -5.9914  -5.9841  -5.9792
    -5.9761  -5.9334  -5.9314  -5.9298  -5.9235  -5.8473  -5.6988  -5.6878
    -5.6307  -5.5851  -5.5766  -5.5735  -5.5671  -5.5500  -5.5456  -5.4514
    -5.0880  -5.0350  -5.0327  -4.8591  -4.8528  -4.5842  -4.5832  -4.5717
    -4.5372  -4.5345  -4.5288  -4.5252  -4.5115  -4.4770  -4.4513  -4.4472
    -4.4198  -4.4172  -4.4169  -4.4147  -4.3953  -4.3927  -4.3490  -4.3347
    -4.3107  -4.3050  -4.2954  -4.2929  -4.2185  -4.2138  -4.2076  -4.2028
    -4.0442  -4.0029  -3.9698  -3.9683  -3.9655  -3.8207  -3.8179  -3.7885
    -3.7598  -3.7567  -3.7532  -3.7476  -3.7254  -3.6986  -3.6746  -3.6720
    -3.6331  -3.6162  -3.5618  -3.5031  -3.4931  -3.4806  -3.3197  -3.3029
    -3.3007  -3.2541  -3.2528  -3.2490  -3.2465  -3.1797  -3.1775  -3.1357
    -3.1239  -2.9558  -2.9422  -2.9356  -2.9253  -2.9235  -2.9003  -2.8637
    -2.8564  -2.6906  -2.6667  -2.6468  -2.6415  -2.6374  -2.6320  -2.6117
    -2.5821  -2.5699  -2.4375  -2.4094  -2.3130  -2.2920  -2.2814  -2.2748
    -2.2732  -2.2497  -2.2120  -2.1777  -2.1728  -2.1641  -2.0645  -1.9898
    -1.9787  -1.8349  -1.7660  -1.7634  -1.7621  -1.7586  -1.6719  -1.6687
    -1.6632  -1.6616  -1.5994  -1.5863  -1.5843  -1.5817  -1.5735  -1.5683
    -1.5514  -1.5396  -1.5362  -1.5201  -1.5167  -1.4219  -1.4028  -1.3952
    -1.3588  -1.3120  -1.3078  -1.2795  -1.2739  -1.2695  -1.2657  -1.1209
    -1.1188  -1.0500  -1.0489  -1.0231  -1.0218  -0.9491  -0.9450  -0.9422
    -0.9398  -0.8579  -0.8560

          k =-0.0225 0.0390 0.0000 ( 92317 PWs)   bands (ev):

   -53.6358 -53.6199 -53.6189 -53.6138 -53.6132 -53.6036 -53.5925 -53.5899
   -53.5891 -53.5878 -53.5832 -53.5821 -53.5726 -53.5714 -53.5673 -53.5661
   -53.5635 -53.5450 -53.5440 -53.5425 -53.5210 -53.5196 -53.5185 -53.4843
   -53.4813 -53.4791 -53.4700 -53.4690 -53.4553 -53.4541 -53.4219 -53.4087
   -53.4071 -53.4030 -53.4012 -53.3905 -53.3884 -53.3831 -53.3798 -53.3791
[...]
     Davidson diagonalization with overlap
     ethr =  6.49E-11,  avg # of iterations =  1.0

     negative rho (up, down):  5.663E+00 0.000E+00

     total cpu time spent up to now is   264145.4 secs

     total energy              =   -7079.82751492 Ry
     Harris-Foulkes estimate   =   -7079.82751523 Ry
     estimated scf accuracy    <       0.00000353 Ry

     iteration # 57     ecut=    40.42 Ry     beta=0.07
     Davidson diagonalization with overlap
     ethr =  6.49E-11,  avg # of iterations =  7.2

     negative rho (up, down):  5.663E+00 0.000E+00

     total cpu time spent up to now is   264380.9 secs

     total energy              =   -7079.82751510 Ry
     Harris-Foulkes estimate   =   -7079.82751517 Ry
     estimated scf accuracy    <       0.00000060 Ry

     iteration # 58     ecut=    40.42 Ry     beta=0.07
     Davidson diagonalization with overlap
     c_bands:  2 eigenvalues not converged
     c_bands:  1 eigenvalues not converged
     ethr =  6.49E-11,  avg # of iterations =  7.1

     negative rho (up, down):  5.663E+00 0.000E+00

     total cpu time spent up to now is   264593.0 secs

     total energy              =   -7079.82751512 Ry
     Harris-Foulkes estimate   =   -7079.82751516 Ry
     estimated scf accuracy    <       0.00000077 Ry

     iteration # 59     ecut=    40.42 Ry     beta=0.07
     Davidson diagonalization with overlap
     c_bands:  2 eigenvalues not converged
     c_bands:  1 eigenvalues not converged
     ethr =  6.49E-11,  avg # of iterations =  4.8

     negative rho (up, down):  5.663E+00 0.000E+00

     total cpu time spent up to now is   264791.5 secs

     total energy              =   -7079.82751518 Ry
     Harris-Foulkes estimate   =   -7079.82751514 Ry
     estimated scf accuracy    <       0.00000048 Ry

     iteration # 60     ecut=    40.42 Ry     beta=0.07
     Davidson diagonalization with overlap
     c_bands:  1 eigenvalues not converged
     c_bands:  2 eigenvalues not converged
     ethr =  6.49E-11,  avg # of iterations =  8.2

     negative rho (up, down):  5.663E+00 0.000E+00

     total cpu time spent up to now is   265006.8 secs

     total energy              =   -7079.82751526 Ry
     Harris-Foulkes estimate   =   -7079.82751525 Ry
     estimated scf accuracy    <       0.00000210 Ry

     iteration # 61     ecut=    40.42 Ry     beta=0.07
     Davidson diagonalization with overlap
     ethr =  6.49E-11,  avg # of iterations =  1.5

     negative rho (up, down):  5.663E+00 0.000E+00

     total cpu time spent up to now is   265194.8 secs

     total energy              =   -7079.82751530 Ry
     Harris-Foulkes estimate   =   -7079.82751526 Ry
     estimated scf accuracy    <       0.00000215 Ry

     iteration # 62     ecut=    40.42 Ry     beta=0.07
     Davidson diagonalization with overlap
     ethr =  6.49E-11,  avg # of iterations =  1.0

     negative rho (up, down):  5.663E+00 0.000E+00

     total cpu time spent up to now is   265377.9 secs

     total energy              =   -7079.82751532 Ry
     Harris-Foulkes estimate   =   -7079.82751530 Ry
     estimated scf accuracy    <       0.00000250 Ry

     iteration # 63     ecut=    40.42 Ry     beta=0.07
     Davidson diagonalization with overlap
     ethr =  6.49E-11,  avg # of iterations =  1.0

     negative rho (up, down):  5.663E+00 0.000E+00

     total cpu time spent up to now is   265560.6 secs

     total energy              =   -7079.82751541 Ry
     Harris-Foulkes estimate   =   -7079.82751532 Ry
     estimated scf accuracy    <       0.00000261 Ry

     iteration # 64     ecut=    40.42 Ry     beta=0.07
     Davidson diagonalization with overlap
     ethr =  6.49E-11,  avg # of iterations =  3.4

     negative rho (up, down):  5.663E+00 0.000E+00

     total cpu time spent up to now is   265753.3 secs

     total energy              =   -7079.82751542 Ry
     Harris-Foulkes estimate   =   -7079.82751542 Ry
     estimated scf accuracy    <       0.00000335 Ry

     iteration # 65     ecut=    40.42 Ry     beta=0.07
     Davidson diagonalization with overlap
     ethr =  6.49E-11,  avg # of iterations =  1.0

     negative rho (up, down):  5.663E+00 0.000E+00

     total cpu time spent up to now is   265939.1 secs

     total energy              =   -7079.82751533 Ry
     Harris-Foulkes estimate   =   -7079.82751543 Ry
     estimated scf accuracy    <       0.00000338 Ry

     iteration # 66     ecut=    40.42 Ry     beta=0.07
     Davidson diagonalization with overlap
     ethr =  6.49E-11,  avg # of iterations =  1.0

     negative rho (up, down):  5.663E+00 0.000E+00

     total cpu time spent up to now is   266123.3 secs

     total energy              =   -7079.82751500 Ry
     Harris-Foulkes estimate   =   -7079.82751533 Ry
     estimated scf accuracy    <       0.00000281 Ry

     iteration # 67     ecut=    40.42 Ry     beta=0.07
     Davidson diagonalization with overlap
     ethr =  6.49E-11,  avg # of iterations =  6.8

     negative rho (up, down):  5.663E+00 0.000E+00

     total cpu time spent up to now is   266373.0 secs

     total energy              =   -7079.82751503 Ry
     Harris-Foulkes estimate   =   -7079.82751523 Ry
     estimated scf accuracy    <       0.00000093 Ry

     iteration # 68     ecut=    40.42 Ry     beta=0.07
     Davidson diagonalization with overlap
     ethr =  6.49E-11,  avg # of iterations =  7.0

     negative rho (up, down):  5.663E+00 0.000E+00

     total cpu time spent up to now is   266620.7 secs

     total energy              =   -7079.82751524 Ry
     Harris-Foulkes estimate   =   -7079.82751532 Ry
     estimated scf accuracy    <       0.00000245 Ry

     iteration # 69     ecut=    40.42 Ry     beta=0.07
     Davidson diagonalization with overlap
     ethr =  6.49E-11,  avg # of iterations =  1.0

     negative rho (up, down):  5.663E+00 0.000E+00

     total cpu time spent up to now is   266807.7 secs

     total energy              =   -7079.82751520 Ry
     Harris-Foulkes estimate   =   -7079.82751525 Ry
     estimated scf accuracy    <       0.00000195 Ry

     iteration # 70     ecut=    40.42 Ry     beta=0.07
     Davidson diagonalization with overlap
     ethr =  6.49E-11,  avg # of iterations =  1.7

     negative rho (up, down):  5.663E+00 0.000E+00

     total cpu time spent up to now is   266996.5 secs

     total energy              =   -7079.82751510 Ry
     Harris-Foulkes estimate   =   -7079.82751521 Ry
     estimated scf accuracy    <       0.00000158 Ry

     iteration # 71     ecut=    40.42 Ry     beta=0.07
     Davidson diagonalization with overlap
     c_bands:  1 eigenvalues not converged
     c_bands:  2 eigenvalues not converged
     c_bands:  1 eigenvalues not converged
     ethr =  6.49E-11,  avg # of iterations =  9.5

     negative rho (up, down):  5.663E+00 0.000E+00

     total cpu time spent up to now is   267211.9 secs

     End of self-consistent calculation

  python dir          : /gpfs/pace1/project/chbe-medford/medford-share/gits/frozen/ben_espresso_8_24_2017/espresso
  espresso dir        : /nv/hp22/amedford6/medford-shared/builds/espresso/5.1.r11289-pybeef/intel-16.0+mvapich2-2.2+mkl-11.3/espresso-5.1.r11289-pybeef/bin
  pseudo dir          : /gpfs/pace1/project/chbe-medford/medford-share/data/pseudos/SSSP_eff_PBE
  ase-espresso py git : GITVERSION



     Program PWSCF v.5.1rc2 starts on 15Apr2019 at 23:51:41 

     This program is part of the open-source Quantum ESPRESSO suite
     for quantum simulation of materials; please cite
         "P. Giannozzi et al., J. Phys.:Condens. Matter 21 395502 (2009);
          URL http://www.quantum-espresso.org", 
     in publications or presentations arising from this work. More details at
     http://www.quantum-espresso.org/quote

     Parallel version (MPI), running on    12 processors
     R & G space division:  proc/nbgrp/npool/nimage =      12
     Reading input from pw.inp
     Message from routine read_cards :
     DEPRECATED: no units specified in CELL_PARAMETERS card

     Current dimensions of program PWSCF are:
     Max number of different atomic species (ntypx) = 10
     Max number of k-points (npk) =  40000
     Max angular momentum in pseudopotentials (lmaxx) =  3

     IMPORTANT: XC functional enforced from input :
     Exchange-correlation      = PBE ( 1  4  3  4 0)
     Any further DFT definition will be discarded
     Please, verify this is what you really want


     Subspace diagonalization in iterative solution of the eigenvalue problem:
     a serial algorithm will be used

 
     Parallelization info
     --------------------
     sticks:   dense  smooth     PW     G-vecs:    dense   smooth      PW
     Min         835     410    107               180058    61552    8337
     Max         837     411    108               180063    61575    8352
     Sum       10033    4927   1285              2160719   738771  100077
 


     bravais-lattice index     =            0
     lattice parameter (alat)  =       1.8897  a.u.
     unit-cell volume          =   21271.9317 (a.u.)^3
     number of atoms/cell      =           56
     number of atomic types    =            4
     number of electrons       =       594.00
     number of Kohn-Sham states=          307
     kinetic-energy cutoff     =      40.4243  Ry
     charge density cutoff     =     330.7439  Ry
     convergence threshold     =      3.7E-07
     mixing beta               =       0.1500
     number of iterations used =            8  local-TF  mixing
     Exchange-correlation      = PBE ( 1  4  3  4 0)
     nstep                     =           50


     celldm(1)=   1.889726  celldm(2)=   0.000000  celldm(3)=   0.000000
     celldm(4)=   0.000000  celldm(5)=   0.000000  celldm(6)=   0.000000

     crystal axes: (cart. coord. in units of alat)
               a(1) = (  11.099314   0.000000   0.000000 )  
               a(2) = (  -5.549657   9.612288   0.000000 )  
               a(3) = (   0.000000   0.000000  29.545235 )  

     reciprocal axes: (cart. coord. in units 2 pi/alat)
               b(1) = (  0.090096  0.052017  0.000000 )  
               b(2) = (  0.000000  0.104034  0.000000 )  
               b(3) = (  0.000000  0.000000  0.033846 )  


     PseudoPot. # 1 for Pt read from file:
     /gpfs/pace1/project/chbe-medford/medford-share/data/pseudos/SSSP_eff_PBE/Pt.UPF
     MD5 check sum: f09d6de1a584b5a045c4fc126da2d0c4
     Pseudo is Ultrasoft + core correction, Zval = 16.0
     Generated by new atomic code, or converted to UPF format
     Using radial grid of  985 points,  6 beta functions with: 
                l(1) =   0
                l(2) =   0
                l(3) =   1
                l(4) =   1
                l(5) =   2
                l(6) =   2
     Q(r) pseudized with  8 coefficients,  rinner =    1.300   1.300   1.300
                                                       1.300   1.300

     PseudoPot. # 2 for O  read from file:
     /gpfs/pace1/project/chbe-medford/medford-share/data/pseudos/SSSP_eff_PBE/O.UPF
     MD5 check sum: 734c27235a0248c51dbae37a1fbe46ec
     Pseudo is Ultrasoft + core correction, Zval =  6.0
     Generated by new atomic code, or converted to UPF format
     Using radial grid of  737 points,  5 beta functions with: 
                l(1) =   0
                l(2) =   0
                l(3) =   1
                l(4) =   1
                l(5) =   2
     Q(r) pseudized with  8 coefficients,  rinner =    0.900   0.900   0.900
                                                       0.900   0.900

     PseudoPot. # 3 for C  read from file:
     /gpfs/pace1/project/chbe-medford/medford-share/data/pseudos/SSSP_eff_PBE/C.UPF
     MD5 check sum: d1aef80898a10debaa0f26306b886e00
     Pseudo is Ultrasoft + core correction, Zval =  4.0
     Generated by new atomic code, or converted to UPF format
     Using radial grid of  721 points,  4 beta functions with: 
                l(1) =   0
                l(2) =   0
                l(3) =   1
                l(4) =   1
     Q(r) pseudized with  8 coefficients,  rinner =    1.100   1.100   1.100


     PseudoPot. # 4 for  H read from file:
     /gpfs/pace1/project/chbe-medford/medford-share/data/pseudos/SSSP_eff_PBE/H.UPF
     MD5 check sum: 36633979392af7100e6f6632747262d3
     Pseudo is Ultrasoft, Zval =  1.0
     Generated using "atomic" code by A. Dal Corso  v.5.0.99 svn rev. 10869
     Using radial grid of  929 points,  2 beta functions with: 
                l(1) =   0
                l(2) =   0
     Q(r) pseudized with 0 coefficients 


     atomic species   valence    mass     pseudopotential
        Pt1           16.00   195.08000     Pt( 1.00)
        O1             6.00    15.99940     O ( 1.00)
        C1             4.00    12.01100     C ( 1.00)
        H1             1.00     1.00794      H( 1.00)

     No symmetry found



   Cartesian axes

     site n.     atom                  positions (alat units)
         1           Pt1 tau(   1) = (   0.0000000   0.0000000  10.0000000  )
         2           Pt1 tau(   2) = (   1.3874142   0.8010240  12.2656379  )
         3           Pt1 tau(   3) = (  -1.3874142   2.4030719  10.0000000  )
         4           Pt1 tau(   4) = (   0.0000000   3.2040959  12.2656379  )
         5           Pt1 tau(   5) = (  -2.7748284   4.8061438  10.0000000  )
         6           Pt1 tau(   6) = (  -1.3874142   5.6071678  12.2656379  )
         7           Pt1 tau(   7) = (  -4.1622426   7.2092157  10.0000000  )
         8           Pt1 tau(   8) = (  -2.7748284   8.0102397  12.2656379  )
         9           Pt1 tau(   9) = (   2.7748284   0.0000000  10.0000000  )
        10           Pt1 tau(  10) = (   4.1622426   0.8010240  12.2656379  )
        11           Pt1 tau(  11) = (   1.3874142   2.4030719  10.0000000  )
        12           Pt1 tau(  12) = (   2.7748284   3.2040959  12.2656379  )
        13           Pt1 tau(  13) = (   0.0000000   4.8061438  10.0000000  )
        14           Pt1 tau(  14) = (   1.3874142   5.6071678  12.2656379  )
        15           Pt1 tau(  15) = (  -1.3874142   7.2092157  10.0000000  )
        16           Pt1 tau(  16) = (   0.0000000   8.0102397  12.2656379  )
        17           Pt1 tau(  17) = (   5.5496569   0.0000000  10.0000000  )
        18           Pt1 tau(  18) = (   6.9370711   0.8010240  12.2656379  )
        19           Pt1 tau(  19) = (   4.1622426   2.4030719  10.0000000  )
        20           Pt1 tau(  20) = (   5.5496569   3.2040959  12.2656379  )
        21           Pt1 tau(  21) = (   2.7748284   4.8061438  10.0000000  )
        22           Pt1 tau(  22) = (   4.1622426   5.6071678  12.2656379  )
        23           Pt1 tau(  23) = (   1.3874142   7.2092157  10.0000000  )
        24           Pt1 tau(  24) = (   2.7748284   8.0102397  12.2656379  )
        25           Pt1 tau(  25) = (   8.3244853   0.0000000  10.0000000  )
        26           Pt1 tau(  26) = (   9.7118995   0.8010240  12.2656379  )
        27           Pt1 tau(  27) = (   6.9370711   2.4030719  10.0000000  )
        28           Pt1 tau(  28) = (   8.3244853   3.2040959  12.2656379  )
        29           Pt1 tau(  29) = (   5.5496569   4.8061438  10.0000000  )
        30           Pt1 tau(  30) = (   6.9370711   5.6071678  12.2656379  )
        31           Pt1 tau(  31) = (   4.1622426   7.2092157  10.0000000  )
        32           Pt1 tau(  32) = (   5.5496569   8.0102397  12.2656379  )
        33           O1  tau(  33) = (   5.8950061   1.8949930  19.1899123  )
        34           O1  tau(  34) = (   6.0435507   4.4301838  18.2089076  )
        35           O1  tau(  35) = (   3.6634051   0.3927480  18.9701590  )
        36           O1  tau(  36) = (   3.1576618   4.6729561  17.6434897  )
        37           O1  tau(  37) = (   4.4370470   0.8845888  15.5739744  )
        38           O1  tau(  38) = (   5.7049442   4.7413232  15.0575688  )
        39           O1  tau(  39) = (   0.0485942   9.1458044  16.9670009  )
        40           O1  tau(  40) = (   4.4366630   6.4581979  15.8710476  )
        41           C1  tau(  41) = (   4.7820842   2.3899227  18.4604461  )
        42           C1  tau(  42) = (   5.2540571   3.4719370  17.4786421  )
        43           C1  tau(  43) = (   4.0047071   1.2000331  17.8612880  )
        44           C1  tau(  44) = (   4.1240279   4.1896588  16.7233938  )
        45           C1  tau(  45) = (   4.8009583   0.4260571  16.8013934  )
        46           C1  tau(  46) = (   4.7634608   5.2853816  15.8711237  )
        47           H1  tau(  47) = (   4.0540653   2.8491941  19.1558615  )
        48           H1  tau(  48) = (   5.9314879   3.0379869  16.7261739  )
        49           H1  tau(  49) = (   3.1096426   1.6069423  17.3429075  )
        50           H1  tau(  50) = (   3.6865303   3.4779073  15.9816330  )
        51           H1  tau(  51) = (   6.4393190   2.6884918  19.4097032  )
        52           H1  tau(  52) = (   5.4160297   5.0092852  18.6917411  )
        53           H1  tau(  53) = (  -2.3275956   9.1976789  18.6652894  )
        54           H1  tau(  54) = (   2.6445043   5.3861238  17.2084491  )
        55           H1  tau(  55) = (   4.9380494   0.3678543  14.8979037  )
        56           H1  tau(  56) = (   5.9600268   5.4129730  14.3837152  )

     number of k points=    10  Fermi-Dirac smearing, width (Ry)=  0.0073
                       cart. coord. in units 2pi/alat
        k(    1) = (   0.0000000   0.0000000   0.0000000), wk =   0.1250000
        k(    2) = (   0.0000000   0.0260084   0.0000000), wk =   0.2500000
        k(    3) = (   0.0000000  -0.0520168   0.0000000), wk =   0.1250000
        k(    4) = (   0.0225239   0.0390126   0.0000000), wk =   0.2500000
        k(    5) = (  -0.0225239   0.0130042   0.0000000), wk =   0.2500000
        k(    6) = (   0.0225239   0.0130042   0.0000000), wk =   0.2500000
        k(    7) = (   0.0450478  -0.0260084   0.0000000), wk =   0.1250000
        k(    8) = (  -0.0450478  -0.0260084   0.0000000), wk =   0.1250000
        k(    9) = (  -0.0225239   0.0390126   0.0000000), wk =   0.2500000
        k(   10) = (   0.0450478  -0.0000000   0.0000000), wk =   0.2500000

     Dense  grid:  2160719 G-vectors     FFT dimensions: ( 125, 125, 324)

     Smooth grid:   738771 G-vectors     FFT dimensions: (  90,  90, 225)

     Largest allocated arrays     est. size (Mb)     dimensions
        Kohn-Sham Wavefunctions        36.37 Mb     (    7764,  307)
        NL pseudopotentials            88.61 Mb     (    7764,  748)
        Each V/rho on FFT grid          6.44 Mb     (  421875)
        Each G-vector array             1.37 Mb     (  180061)
        G-vector shells                 0.43 Mb     (   56214)
     Largest temporary arrays     est. size (Mb)     dimensions
        Auxiliary wavefunctions       145.48 Mb     (    7764, 1228)
        Each subspace H/S matrix       23.01 Mb     (    1228, 1228)
        Each <psi_i|beta_j> matrix      3.50 Mb     (     748,  307)
        Arrays for rho mixing          51.50 Mb     (  421875,    8)

     Initial potential from superposition of free atoms
     Check: negative starting charge=   -5.910278

     starting charge  577.99929, renormalised to  594.00000

     negative rho (up, down):  6.074E+00 0.000E+00
     Starting wfc are  450 randomized atomic wfcs

     total cpu time spent up to now is      742.1 secs

     per-process dynamical memory:   627.7 Mb

     Self-consistent Calculation

     iteration #  1     ecut=    40.42 Ry     beta=0.15
     Davidson diagonalization with overlap
     ethr =  1.00E-02,  avg # of iterations =  2.0

     negative rho (up, down):  6.069E+00 0.000E+00

     total cpu time spent up to now is     2455.2 secs

     total energy              =   -7092.14708521 Ry
     Harris-Foulkes estimate   =   -7098.79187479 Ry
     estimated scf accuracy    <     414.48454806 Ry

     iteration #  2     ecut=    40.42 Ry     beta=0.15
     Davidson diagonalization with overlap
