  python dir          : /gpfs/pace1/project/chbe-medford/medford-share/gits/frozen/ben_espresso_8_24_2017/espresso
  espresso dir        : /nv/hp22/amedford6/medford-shared/builds/espresso/5.1.r11289-pybeef/intel-16.0+mvapich2-2.2+mkl-11.3/espresso-5.1.r11289-pybeef/bin
  pseudo dir          : /gpfs/pace1/project/chbe-medford/medford-share/data/pseudos/SSSP_eff_PBE
  ase-espresso py git : GITVERSION



     Program PWSCF v.5.1rc2 starts on  6Apr2019 at 22:22:58 

     This program is part of the open-source Quantum ESPRESSO suite
     for quantum simulation of materials; please cite
         "P. Giannozzi et al., J. Phys.:Condens. Matter 21 395502 (2009);
          URL http://www.quantum-espresso.org", 
     in publications or presentations arising from this work. More details at
     http://www.quantum-espresso.org/quote

     Parallel version (MPI), running on    12 processors
     R & G space division:  proc/nbgrp/npool/nimage =      12
     Reading input from pw.inp
     Message from routine read_cards :
     DEPRECATED: no units specified in CELL_PARAMETERS card

     Current dimensions of program PWSCF are:
     Max number of different atomic species (ntypx) = 10
     Max number of k-points (npk) =  40000
     Max angular momentum in pseudopotentials (lmaxx) =  3

     IMPORTANT: XC functional enforced from input :
     Exchange-correlation      = PBE ( 1  4  3  4 0)
     Any further DFT definition will be discarded
     Please, verify this is what you really want


     Subspace diagonalization in iterative solution of the eigenvalue problem:
     a serial algorithm will be used

 
     Parallelization info
     --------------------
     sticks:   dense  smooth     PW     G-vecs:    dense   smooth      PW
     Min         902     442    116               195054    66674    9022
     Max         903     443    117               195063    66696    9033
     Sum       10831    5305   1393              2340703   800183  108285
 


     bravais-lattice index     =            0
     lattice parameter (alat)  =       1.8897  a.u.
     unit-cell volume          =   23043.4067 (a.u.)^3
     number of atoms/cell      =           56
     number of atomic types    =            4
     number of electrons       =       690.00
     number of Kohn-Sham states=          355
     kinetic-energy cutoff     =      40.4243  Ry
     charge density cutoff     =     330.7439  Ry
     convergence threshold     =      3.7E-07
     mixing beta               =       0.0750
     number of iterations used =            8  local-TF  mixing
     Exchange-correlation      = PBE ( 1  4  3  4 0)
     nstep                     =           50


     celldm(1)=   1.889726  celldm(2)=   0.000000  celldm(3)=   0.000000
     celldm(4)=   0.000000  celldm(5)=   0.000000  celldm(6)=   0.000000

     crystal axes: (cart. coord. in units of alat)
               a(1) = (  11.534892   0.000000   0.000000 )  
               a(2) = (  -5.767446   9.989509   0.000000 )  
               a(3) = (   0.000000   0.000000  29.634147 )  

     reciprocal axes: (cart. coord. in units 2 pi/alat)
               b(1) = (  0.086693  0.050053  0.000000 )  
               b(2) = (  0.000000  0.100105  0.000000 )  
               b(3) = (  0.000000  0.000000  0.033745 )  


     PseudoPot. # 1 for Au read from file:
     /gpfs/pace1/project/chbe-medford/medford-share/data/pseudos/SSSP_eff_PBE/Au.UPF
     MD5 check sum: 1009843a674e36925f098327e430af60
     Pseudo is Norm-conserving, Zval = 19.0
     Generated using ONCVPSP code by D. R. Hamann
     Using radial grid of  602 points,  8 beta functions with: 
                l(1) =   0
                l(2) =   0
                l(3) =   1
                l(4) =   1
                l(5) =   2
                l(6) =   2
                l(7) =   3
                l(8) =   3

     PseudoPot. # 2 for O  read from file:
     /gpfs/pace1/project/chbe-medford/medford-share/data/pseudos/SSSP_eff_PBE/O.UPF
     MD5 check sum: 734c27235a0248c51dbae37a1fbe46ec
     Pseudo is Ultrasoft + core correction, Zval =  6.0
     Generated by new atomic code, or converted to UPF format
     Using radial grid of  737 points,  5 beta functions with: 
                l(1) =   0
                l(2) =   0
                l(3) =   1
                l(4) =   1
                l(5) =   2
     Q(r) pseudized with  8 coefficients,  rinner =    0.900   0.900   0.900
                                                       0.900   0.900

     PseudoPot. # 3 for C  read from file:
     /gpfs/pace1/project/chbe-medford/medford-share/data/pseudos/SSSP_eff_PBE/C.UPF
     MD5 check sum: d1aef80898a10debaa0f26306b886e00
     Pseudo is Ultrasoft + core correction, Zval =  4.0
     Generated by new atomic code, or converted to UPF format
     Using radial grid of  721 points,  4 beta functions with: 
                l(1) =   0
                l(2) =   0
                l(3) =   1
                l(4) =   1
     Q(r) pseudized with  8 coefficients,  rinner =    1.100   1.100   1.100


     PseudoPot. # 4 for  H read from file:
     /gpfs/pace1/project/chbe-medford/medford-share/data/pseudos/SSSP_eff_PBE/H.UPF
     MD5 check sum: 36633979392af7100e6f6632747262d3
     Pseudo is Ultrasoft, Zval =  1.0
     Generated using "atomic" code by A. Dal Corso  v.5.0.99 svn rev. 10869
     Using radial grid of  929 points,  2 beta functions with: 
                l(1) =   0
                l(2) =   0
     Q(r) pseudized with 0 coefficients 


     atomic species   valence    mass     pseudopotential
        Au1           19.00   196.96650     Au( 1.00)
        O1             6.00    15.99940     O ( 1.00)
        C1             4.00    12.01100     C ( 1.00)
        H1             1.00     1.00794      H( 1.00)

     No symmetry found



   Cartesian axes

     site n.     atom                  positions (alat units)
         1           Au1 tau(   1) = (   0.0000000   0.0000000  10.0000000  )
         2           Au1 tau(   2) = (   1.4418614   0.8324591  12.3545499  )
         3           Au1 tau(   3) = (  -1.4418614   2.4973773  10.0000000  )
         4           Au1 tau(   4) = (   0.0000000   3.3298364  12.3545499  )
         5           Au1 tau(   5) = (  -2.8837229   4.9947545  10.0000000  )
         6           Au1 tau(   6) = (  -1.4418614   5.8272136  12.3545499  )
         7           Au1 tau(   7) = (  -4.3255843   7.4921318  10.0000000  )
         8           Au1 tau(   8) = (  -2.8837229   8.3245909  12.3545499  )
         9           Au1 tau(   9) = (   2.8837229   0.0000000  10.0000000  )
        10           Au1 tau(  10) = (   4.3255843   0.8324591  12.3545499  )
        11           Au1 tau(  11) = (   1.4418614   2.4973773  10.0000000  )
        12           Au1 tau(  12) = (   2.8837229   3.3298364  12.3545499  )
        13           Au1 tau(  13) = (   0.0000000   4.9947545  10.0000000  )
        14           Au1 tau(  14) = (   1.4418614   5.8272136  12.3545499  )
        15           Au1 tau(  15) = (  -1.4418614   7.4921318  10.0000000  )
        16           Au1 tau(  16) = (   0.0000000   8.3245909  12.3545499  )
        17           Au1 tau(  17) = (   5.7674458   0.0000000  10.0000000  )
        18           Au1 tau(  18) = (   7.2093072   0.8324591  12.3545499  )
        19           Au1 tau(  19) = (   4.3255843   2.4973773  10.0000000  )
        20           Au1 tau(  20) = (   5.7674458   3.3298364  12.3545499  )
        21           Au1 tau(  21) = (   2.8837229   4.9947545  10.0000000  )
        22           Au1 tau(  22) = (   4.3255843   5.8272136  12.3545499  )
        23           Au1 tau(  23) = (   1.4418614   7.4921318  10.0000000  )
        24           Au1 tau(  24) = (   2.8837229   8.3245909  12.3545499  )
        25           Au1 tau(  25) = (   8.6511686   0.0000000  10.0000000  )
        26           Au1 tau(  26) = (  10.0930301   0.8324591  12.3545499  )
        27           Au1 tau(  27) = (   7.2093072   2.4973773  10.0000000  )
        28           Au1 tau(  28) = (   8.6511686   3.3298364  12.3545499  )
        29           Au1 tau(  29) = (   5.7674458   4.9947545  10.0000000  )
        30           Au1 tau(  30) = (   7.2093072   5.8272136  12.3545499  )
        31           Au1 tau(  31) = (   4.3255843   7.4921318  10.0000000  )
        32           Au1 tau(  32) = (   5.7674458   8.3245909  12.3545499  )
        33           O1  tau(  33) = (   4.6811000   2.9492590  19.2391167  )
        34           O1  tau(  34) = (   4.8372000   5.4487810  18.2245663  )
        35           O1  tau(  35) = (   2.5651000   1.3189676  19.0135652  )
        36           O1  tau(  36) = (   2.0728000   5.8669746  17.6327729  )
        37           O1  tau(  37) = (   3.1903000   1.8219736  15.6185646  )
        38           O1  tau(  38) = (   4.3260000   5.8270000  14.8545499  )
        39           O1  tau(  39) = (   4.3973000   0.6239686  17.1146943  )
        40           O1  tau(  40) = (   3.3217000   7.5499924  15.9449856  )
        41           C1  tau(  41) = (   3.5398000   3.4374892  18.5153201  )
        42           C1  tau(  42) = (   4.0508000   4.4860275  17.5083178  )
        43           C1  tau(  43) = (   2.7753000   2.2388977  17.9392084  )
        44           C1  tau(  44) = (   2.9834000   5.2656065  16.7262369  )
        45           C1  tau(  45) = (   3.5481000   1.4745050  16.8791351  )
        46           C1  tau(  46) = (   3.5484000   6.3535640  15.8337585  )
        47           H1  tau(  47) = (   2.9137000   3.9205570  19.2755524  )
        48           H1  tau(  48) = (   4.7501000   4.0115597  16.8107973  )
        49           H1  tau(  49) = (   1.7979000   2.5386897  17.5477061  )
        50           H1  tau(  50) = (   2.4040000   4.5812121  16.0965051  )
        51           H1  tau(  51) = (   5.1266000   3.7181628  19.6341465  )
        52           H1  tau(  52) = (   4.2472000   5.9019983  18.8511833  )
        53           H1  tau(  53) = (   1.9713000   0.6211725  18.6869080  )
        54           H1  tau(  54) = (   1.3353000   6.2292827  17.1126573  )
        55           H1  tau(  55) = (   3.6930000   1.3186879  14.9430252  )
        56           H1  tau(  56) = (   4.6863000   6.5198596  14.2608886  )

     number of k points=    10  Fermi-Dirac smearing, width (Ry)=  0.0073
                       cart. coord. in units 2pi/alat
        k(    1) = (   0.0000000   0.0000000   0.0000000), wk =   0.1250000
        k(    2) = (   0.0000000   0.0250263   0.0000000), wk =   0.2500000
        k(    3) = (   0.0000000  -0.0500525   0.0000000), wk =   0.1250000
        k(    4) = (   0.0216734   0.0375394   0.0000000), wk =   0.2500000
        k(    5) = (  -0.0216734   0.0125131   0.0000000), wk =   0.2500000
        k(    6) = (   0.0216734   0.0125131   0.0000000), wk =   0.2500000
        k(    7) = (   0.0433467  -0.0250263   0.0000000), wk =   0.1250000
        k(    8) = (  -0.0433467  -0.0250263   0.0000000), wk =   0.1250000
        k(    9) = (  -0.0216734   0.0375394   0.0000000), wk =   0.2500000
        k(   10) = (   0.0433467   0.0000000   0.0000000), wk =   0.2500000

     Dense  grid:  2340703 G-vectors     FFT dimensions: ( 128, 128, 360)

     Smooth grid:   800183 G-vectors     FFT dimensions: (  90,  90, 240)

     Largest allocated arrays     est. size (Mb)     dimensions
        Kohn-Sham Wavefunctions        45.38 Mb     (    8377,  355)
        NL pseudopotentials           152.88 Mb     (    8377, 1196)
        Each V/rho on FFT grid          7.50 Mb     (  491520)
        Each G-vector array             1.49 Mb     (  195061)
        G-vector shells                 0.46 Mb     (   59788)
     Largest temporary arrays     est. size (Mb)     dimensions
        Auxiliary wavefunctions       181.51 Mb     (    8377, 1420)
        Each subspace H/S matrix       30.77 Mb     (    1420, 1420)
        Each <psi_i|beta_j> matrix      6.48 Mb     (    1196,  355)
        Arrays for rho mixing          60.00 Mb     (  491520,    8)

     Initial potential from superposition of free atoms
     Check: negative starting charge=   -0.002236

     starting charge  689.28099, renormalised to  690.00000

     negative rho (up, down):  2.239E-03 0.000E+00
     Starting wfc are   66 randomized atomic wfcs +  289 random wfc

     total cpu time spent up to now is      133.5 secs

     per-process dynamical memory:   809.8 Mb

     Self-consistent Calculation

     iteration #  1     ecut=    40.42 Ry     beta=0.07
     Davidson diagonalization with overlap
     ethr =  1.00E-02,  avg # of iterations = 11.7

     Threshold (ethr) on eigenvalues was too large:
     Diagonalizing with lowered threshold

     Davidson diagonalization with overlap
     ethr =  4.06E-04,  avg # of iterations =  1.9

     negative rho (up, down):  4.043E-04 0.000E+00

     total cpu time spent up to now is     1976.8 secs

     total energy              =   -9130.25712381 Ry
     Harris-Foulkes estimate   =   -9130.38237757 Ry
     estimated scf accuracy    <       2.81290018 Ry

     iteration #  2     ecut=    40.42 Ry     beta=0.07
     Davidson diagonalization with overlap
     ethr =  4.08E-04,  avg # of iterations =  1.0

     negative rho (up, down):  3.808E-04 0.000E+00

     total cpu time spent up to now is     2319.4 secs

     total energy              =   -9129.20955986 Ry
     Harris-Foulkes estimate   =   -9130.26429830 Ry
     estimated scf accuracy    <       2.43044406 Ry

     iteration #  3     ecut=    40.42 Ry     beta=0.07
     Davidson diagonalization with overlap
     ethr =  3.52E-04,  avg # of iterations =  5.4

     negative rho (up, down):  2.339E-04 0.000E+00

     total cpu time spent up to now is     2751.7 secs

     total energy              =   -9129.61345854 Ry
     Harris-Foulkes estimate   =   -9129.62295692 Ry
     estimated scf accuracy    <       0.35697858 Ry

     iteration #  4     ecut=    40.42 Ry     beta=0.07
     Davidson diagonalization with overlap
     ethr =  5.17E-05,  avg # of iterations =  3.2

     negative rho (up, down):  1.683E-04 0.000E+00

     total cpu time spent up to now is     3118.2 secs

     total energy              =   -9129.50137221 Ry
     Harris-Foulkes estimate   =   -9129.61676553 Ry
     estimated scf accuracy    <       0.32865273 Ry

     iteration #  5     ecut=    40.42 Ry     beta=0.07
     Davidson diagonalization with overlap
     ethr =  4.76E-05,  avg # of iterations =  3.1

     negative rho (up, down):  1.143E-04 0.000E+00

     total cpu time spent up to now is     3506.9 secs

     total energy              =   -9129.53635407 Ry
     Harris-Foulkes estimate   =   -9129.53800859 Ry
     estimated scf accuracy    <       0.06998958 Ry

     iteration #  6     ecut=    40.42 Ry     beta=0.07
     Davidson diagonalization with overlap
     ethr =  1.01E-05,  avg # of iterations =  2.9

     negative rho (up, down):  3.460E-05 0.000E+00

     total cpu time spent up to now is     3870.8 secs

     total energy              =   -9129.52494247 Ry
     Harris-Foulkes estimate   =   -9129.53705674 Ry
     estimated scf accuracy    <       0.06452088 Ry

     iteration #  7     ecut=    40.42 Ry     beta=0.07
     Davidson diagonalization with overlap
     ethr =  9.35E-06,  avg # of iterations =  3.1

     negative rho (up, down):  5.826E-05 0.000E+00

     total cpu time spent up to now is     4262.1 secs

     total energy              =   -9129.52288321 Ry
     Harris-Foulkes estimate   =   -9129.53125959 Ry
     estimated scf accuracy    <       0.05296619 Ry

     iteration #  8     ecut=    40.42 Ry     beta=0.07
     Davidson diagonalization with overlap
     ethr =  7.68E-06,  avg # of iterations =  3.8

     negative rho (up, down):  1.515E-04 0.000E+00

     total cpu time spent up to now is     4641.7 secs

     total energy              =   -9129.51903147 Ry
     Harris-Foulkes estimate   =   -9129.52426113 Ry
     estimated scf accuracy    <       0.03353696 Ry

     iteration #  9     ecut=    40.42 Ry     beta=0.07
     Davidson diagonalization with overlap
     ethr =  4.86E-06,  avg # of iterations =  2.0

     negative rho (up, down):  7.087E-03 0.000E+00

     total cpu time spent up to now is     4997.8 secs

     total energy              =   -9129.51760398 Ry
     Harris-Foulkes estimate   =   -9129.51960446 Ry
     estimated scf accuracy    <       0.02208468 Ry

     iteration # 10     ecut=    40.42 Ry     beta=0.07
     Davidson diagonalization with overlap
     ethr =  3.20E-06,  avg # of iterations =  3.2

     negative rho (up, down):  1.066E-02 0.000E+00

     total cpu time spent up to now is     5382.5 secs

     total energy              =   -9129.51717926 Ry
     Harris-Foulkes estimate   =   -9129.51856666 Ry
     estimated scf accuracy    <       0.01668739 Ry

     iteration # 11     ecut=    40.42 Ry     beta=0.07
     Davidson diagonalization with overlap
     ethr =  2.42E-06,  avg # of iterations =  5.3

     negative rho (up, down):  7.991E-02 0.000E+00

     total cpu time spent up to now is     5787.3 secs

     total energy              =   -9129.51679400 Ry
     Harris-Foulkes estimate   =   -9129.51781196 Ry
     estimated scf accuracy    <       0.01194798 Ry

     iteration # 12     ecut=    40.42 Ry     beta=0.07
     Davidson diagonalization with overlap
     ethr =  1.73E-06,  avg # of iterations =  3.9

     negative rho (up, down):  7.799E-02 0.000E+00

     total cpu time spent up to now is     6191.4 secs

     total energy              =   -9129.51724827 Ry
     Harris-Foulkes estimate   =   -9129.51756552 Ry
     estimated scf accuracy    <       0.00742158 Ry

     iteration # 13     ecut=    40.42 Ry     beta=0.07
     Davidson diagonalization with overlap
     ethr =  1.08E-06,  avg # of iterations =  3.4

     negative rho (up, down):  9.106E-02 0.000E+00

     total cpu time spent up to now is     6590.1 secs

     total energy              =   -9129.51591180 Ry
     Harris-Foulkes estimate   =   -9129.51784462 Ry
     estimated scf accuracy    <       0.00938559 Ry

     iteration # 14     ecut=    40.42 Ry     beta=0.07
     Davidson diagonalization with overlap
     ethr =  1.08E-06,  avg # of iterations =  3.0

     negative rho (up, down):  8.152E-02 0.000E+00

     total cpu time spent up to now is     6979.7 secs

     total energy              =   -9129.51567785 Ry
     Harris-Foulkes estimate   =   -9129.51640042 Ry
     estimated scf accuracy    <       0.00425711 Ry

     iteration # 15     ecut=    40.42 Ry     beta=0.07
     Davidson diagonalization with overlap
     ethr =  6.17E-07,  avg # of iterations =  3.7

     negative rho (up, down):  5.827E-02 0.000E+00

     total cpu time spent up to now is     7390.4 secs

     total energy              =   -9129.51489046 Ry
     Harris-Foulkes estimate   =   -9129.51603318 Ry
     estimated scf accuracy    <       0.00299272 Ry

     iteration # 16     ecut=    40.42 Ry     beta=0.07
     Davidson diagonalization with overlap
     ethr =  4.34E-07,  avg # of iterations =  3.0

     negative rho (up, down):  5.925E-02 0.000E+00

     total cpu time spent up to now is     7800.5 secs

     total energy              =   -9129.51518181 Ry
     Harris-Foulkes estimate   =   -9129.51517686 Ry
     estimated scf accuracy    <       0.00109721 Ry

     iteration # 17     ecut=    40.42 Ry     beta=0.07
     Davidson diagonalization with overlap
     ethr =  1.59E-07,  avg # of iterations =  1.0

     negative rho (up, down):  3.351E-02 0.000E+00

     total cpu time spent up to now is     8166.0 secs

     total energy              =   -9129.51446728 Ry
     Harris-Foulkes estimate   =   -9129.51518948 Ry
     estimated scf accuracy    <       0.00101318 Ry

     iteration # 18     ecut=    40.42 Ry     beta=0.07
     Davidson diagonalization with overlap
     ethr =  1.47E-07,  avg # of iterations =  3.1

     negative rho (up, down):  2.974E-02 0.000E+00

     total cpu time spent up to now is     8581.1 secs

     total energy              =   -9129.51433215 Ry
     Harris-Foulkes estimate   =   -9129.51457742 Ry
     estimated scf accuracy    <       0.00058409 Ry

     iteration # 19     ecut=    40.42 Ry     beta=0.07
     Davidson diagonalization with overlap
     ethr =  8.47E-08,  avg # of iterations =  3.0

     negative rho (up, down):  2.943E-02 0.000E+00

     total cpu time spent up to now is     8968.9 secs

     total energy              =   -9129.51433355 Ry
     Harris-Foulkes estimate   =   -9129.51434561 Ry
     estimated scf accuracy    <       0.00040578 Ry

     iteration # 20     ecut=    40.42 Ry     beta=0.07
     Davidson diagonalization with overlap
     ethr =  5.88E-08,  avg # of iterations =  2.4

     negative rho (up, down):  2.917E-02 0.000E+00

     total cpu time spent up to now is     9344.7 secs

     total energy              =   -9129.51436014 Ry
     Harris-Foulkes estimate   =   -9129.51433696 Ry
     estimated scf accuracy    <       0.00036709 Ry

     iteration # 21     ecut=    40.42 Ry     beta=0.07
     Davidson diagonalization with overlap
     ethr =  5.32E-08,  avg # of iterations =  2.4

     negative rho (up, down):  2.669E-02 0.000E+00

     total cpu time spent up to now is     9730.5 secs

     total energy              =   -9129.51426158 Ry
     Harris-Foulkes estimate   =   -9129.51436241 Ry
     estimated scf accuracy    <       0.00033896 Ry

     iteration # 22     ecut=    40.42 Ry     beta=0.07
     Davidson diagonalization with overlap
     ethr =  4.91E-08,  avg # of iterations =  3.0

     negative rho (up, down):  2.339E-02 0.000E+00

     total cpu time spent up to now is    10141.4 secs

     total energy              =   -9129.51417813 Ry
     Harris-Foulkes estimate   =   -9129.51428066 Ry
     estimated scf accuracy    <       0.00028728 Ry

     iteration # 23     ecut=    40.42 Ry     beta=0.07
     Davidson diagonalization with overlap
     ethr =  4.16E-08,  avg # of iterations =  2.9

     negative rho (up, down):  2.224E-02 0.000E+00

     total cpu time spent up to now is    10528.0 secs

     total energy              =   -9129.51416554 Ry
     Harris-Foulkes estimate   =   -9129.51418392 Ry
     estimated scf accuracy    <       0.00020330 Ry

     iteration # 24     ecut=    40.42 Ry     beta=0.07
     Davidson diagonalization with overlap
     ethr =  2.95E-08,  avg # of iterations =  2.9

     negative rho (up, down):  2.151E-02 0.000E+00

     total cpu time spent up to now is    10916.3 secs

     total energy              =   -9129.51414642 Ry
     Harris-Foulkes estimate   =   -9129.51416902 Ry
     estimated scf accuracy    <       0.00017909 Ry

     iteration # 25     ecut=    40.42 Ry     beta=0.07
     Davidson diagonalization with overlap
     ethr =  2.60E-08,  avg # of iterations =  2.0

     negative rho (up, down):  2.028E-02 0.000E+00

     total cpu time spent up to now is    11299.6 secs

     total energy              =   -9129.51410146 Ry
     Harris-Foulkes estimate   =   -9129.51414917 Ry
     estimated scf accuracy    <       0.00014162 Ry

     iteration # 26     ecut=    40.42 Ry     beta=0.07
     Davidson diagonalization with overlap
     ethr =  2.05E-08,  avg # of iterations =  2.7

     negative rho (up, down):  1.949E-02 0.000E+00

     total cpu time spent up to now is    11690.6 secs

     total energy              =   -9129.51408136 Ry
     Harris-Foulkes estimate   =   -9129.51410650 Ry
     estimated scf accuracy    <       0.00011718 Ry

     iteration # 27     ecut=    40.42 Ry     beta=0.07
     Davidson diagonalization with overlap
     ethr =  1.70E-08,  avg # of iterations =  1.0

     negative rho (up, down):  1.921E-02 0.000E+00

     total cpu time spent up to now is    12055.9 secs

     total energy              =   -9129.51407423 Ry
     Harris-Foulkes estimate   =   -9129.51408238 Ry
     estimated scf accuracy    <       0.00010749 Ry

     iteration # 28     ecut=    40.42 Ry     beta=0.07
     Davidson diagonalization with overlap
     ethr =  1.56E-08,  avg # of iterations =  1.0

     negative rho (up, down):  1.368E-02 0.000E+00

     total cpu time spent up to now is    12432.4 secs

     total energy              =   -9129.51394549 Ry
     Harris-Foulkes estimate   =   -9129.51407448 Ry
     estimated scf accuracy    <       0.00010314 Ry

     iteration # 29     ecut=    40.42 Ry     beta=0.07
     Davidson diagonalization with overlap
     ethr =  1.49E-08,  avg # of iterations =  3.0

     negative rho (up, down):  1.184E-02 0.000E+00

     total cpu time spent up to now is    12835.8 secs

     total energy              =   -9129.51392796 Ry
     Harris-Foulkes estimate   =   -9129.51395215 Ry
     estimated scf accuracy    <       0.00005367 Ry

     iteration # 30     ecut=    40.42 Ry     beta=0.07
     Davidson diagonalization with overlap
     ethr =  7.78E-09,  avg # of iterations =  2.8

     negative rho (up, down):  1.170E-02 0.000E+00

     total cpu time spent up to now is    13222.9 secs

     total energy              =   -9129.51392323 Ry
     Harris-Foulkes estimate   =   -9129.51392902 Ry
     estimated scf accuracy    <       0.00004259 Ry

     iteration # 31     ecut=    40.42 Ry     beta=0.07
     Davidson diagonalization with overlap
     ethr =  6.17E-09,  avg # of iterations =  2.7

     negative rho (up, down):  1.022E-02 0.000E+00

     total cpu time spent up to now is    13616.1 secs

     total energy              =   -9129.51390467 Ry
     Harris-Foulkes estimate   =   -9129.51392407 Ry
     estimated scf accuracy    <       0.00003523 Ry

     iteration # 32     ecut=    40.42 Ry     beta=0.07
     Davidson diagonalization with overlap
     ethr =  5.11E-09,  avg # of iterations =  3.2

     negative rho (up, down):  8.809E-03 0.000E+00

     total cpu time spent up to now is    14030.3 secs

     total energy              =   -9129.51389540 Ry
     Harris-Foulkes estimate   =   -9129.51390732 Ry
     estimated scf accuracy    <       0.00002194 Ry

     iteration # 33     ecut=    40.42 Ry     beta=0.07
     Davidson diagonalization with overlap
     ethr =  3.18E-09,  avg # of iterations =  3.7

     negative rho (up, down):  8.760E-03 0.000E+00

     total cpu time spent up to now is    14442.4 secs

     total energy              =   -9129.51389686 Ry
     Harris-Foulkes estimate   =   -9129.51389644 Ry
     estimated scf accuracy    <       0.00001776 Ry

     iteration # 34     ecut=    40.42 Ry     beta=0.07
     Davidson diagonalization with overlap
     ethr =  2.57E-09,  avg # of iterations =  3.0

     negative rho (up, down):  6.802E-03 0.000E+00

     total cpu time spent up to now is    14828.7 secs

     total energy              =   -9129.51388042 Ry
     Harris-Foulkes estimate   =   -9129.51389712 Ry
     estimated scf accuracy    <       0.00001502 Ry

     iteration # 35     ecut=    40.42 Ry     beta=0.07
     Davidson diagonalization with overlap
     ethr =  2.18E-09,  avg # of iterations =  2.4

     negative rho (up, down):  6.109E-03 0.000E+00

     total cpu time spent up to now is    15213.2 secs

     total energy              =   -9129.51387706 Ry
     Harris-Foulkes estimate   =   -9129.51388071 Ry
     estimated scf accuracy    <       0.00001154 Ry

     iteration # 36     ecut=    40.42 Ry     beta=0.07
     Davidson diagonalization with overlap
     ethr =  1.67E-09,  avg # of iterations =  2.0

     negative rho (up, down):  6.051E-03 0.000E+00

     total cpu time spent up to now is    15597.8 secs

     total energy              =   -9129.51387728 Ry
     Harris-Foulkes estimate   =   -9129.51387727 Ry
     estimated scf accuracy    <       0.00000942 Ry

     iteration # 37     ecut=    40.42 Ry     beta=0.07
     Davidson diagonalization with overlap
     ethr =  1.37E-09,  avg # of iterations =  3.0

     negative rho (up, down):  4.437E-03 0.000E+00

     total cpu time spent up to now is    15995.7 secs

     total energy              =   -9129.51387477 Ry
     Harris-Foulkes estimate   =   -9129.51387750 Ry
     estimated scf accuracy    <       0.00000816 Ry

     iteration # 38     ecut=    40.42 Ry     beta=0.07
     Davidson diagonalization with overlap
     ethr =  1.18E-09,  avg # of iterations =  3.0

     negative rho (up, down):  4.543E-03 0.000E+00

     total cpu time spent up to now is    16417.8 secs

     total energy              =   -9129.51387495 Ry
     Harris-Foulkes estimate   =   -9129.51387583 Ry
     estimated scf accuracy    <       0.00000216 Ry

     iteration # 39     ecut=    40.42 Ry     beta=0.07
     Davidson diagonalization with overlap
     ethr =  3.13E-10,  avg # of iterations =  3.0

     negative rho (up, down):  4.663E-03 0.000E+00

     total cpu time spent up to now is    16829.9 secs

     total energy              =   -9129.51387482 Ry
     Harris-Foulkes estimate   =   -9129.51387504 Ry
     estimated scf accuracy    <       0.00000148 Ry

     iteration # 40     ecut=    40.42 Ry     beta=0.07
     Davidson diagonalization with overlap
     ethr =  2.15E-10,  avg # of iterations =  1.9

     negative rho (up, down):  4.914E-03 0.000E+00

     total cpu time spent up to now is    17203.0 secs

     total energy              =   -9129.51387544 Ry
     Harris-Foulkes estimate   =   -9129.51387484 Ry
     estimated scf accuracy    <       0.00000129 Ry

     iteration # 41     ecut=    40.42 Ry     beta=0.07
     Davidson diagonalization with overlap
     ethr =  1.87E-10,  avg # of iterations =  2.7

     negative rho (up, down):  4.941E-03 0.000E+00

     total cpu time spent up to now is    17600.9 secs

     total energy              =   -9129.51387550 Ry
     Harris-Foulkes estimate   =   -9129.51387548 Ry
     estimated scf accuracy    <       0.00000104 Ry

     iteration # 42     ecut=    40.42 Ry     beta=0.07
     Davidson diagonalization with overlap
     ethr =  1.51E-10,  avg # of iterations =  1.0

     negative rho (up, down):  4.908E-03 0.000E+00

     total cpu time spent up to now is    17981.3 secs

     total energy              =   -9129.51387545 Ry
     Harris-Foulkes estimate   =   -9129.51387550 Ry
     estimated scf accuracy    <       0.00000098 Ry

     iteration # 43     ecut=    40.42 Ry     beta=0.07
     Davidson diagonalization with overlap
     ethr =  1.42E-10,  avg # of iterations =  3.0

     negative rho (up, down):  4.999E-03 0.000E+00

     total cpu time spent up to now is    18394.1 secs

     End of self-consistent calculation

          k = 0.0000 0.0000 0.0000 ( 99965 PWs)   bands (ev):

  -106.3245-106.1830-106.1638-106.1401-106.1326-106.1303-106.1296-106.1255
  -106.1245-106.1208-106.1172-106.1166-106.1156-106.1152-106.1147-106.1136
  -106.1132-106.1126-106.1113-106.1111-106.1107-106.1094-106.1084-106.1077
  -106.1077-106.1072-106.1069-106.1064-106.1033-106.1031-106.1028-106.1015
   -57.6922 -57.6685 -57.5918 -57.5703 -57.5635 -57.5557 -57.5486 -57.5470
   -57.5433 -57.5419 -57.5304 -57.5299 -57.5258 -57.5220 -57.5198 -57.5189
   -57.5182 -57.5177 -57.5170 -57.5076 -57.4989 -57.4912 -57.4861 -57.4817
   -57.4794 -57.4755 -57.4712 -57.4705 -57.4676 -57.4669 -57.4656 -57.4648
   -57.4632 -57.4626 -57.4609 -57.4596 -57.4591 -57.4518 -57.4506 -57.4493
   -57.4470 -57.4464 -57.4439 -57.4417 -57.4383 -57.4364 -57.4232 -57.4230
   -57.4184 -57.4159 -57.4128 -57.4123 -57.4106 -57.4100 -57.4092 -57.4074
   -57.3978 -57.3959 -57.3928 -57.3907 -57.3900 -57.3893 -57.3886 -57.3872
   -57.3858 -57.3748 -57.3722 -57.3705 -57.3659 -57.3591 -57.3562 -57.3547
   -57.3436 -57.3377 -57.3340 -57.3314 -57.3263 -57.3249 -57.3219 -57.3195
   -57.3186 -57.3052 -57.3025 -57.2993 -57.2932 -57.2903 -57.2888 -57.2874
   -57.2851 -57.2833 -57.2804 -57.2792 -57.2748 -57.2741 -57.2740 -57.2694
   -23.8369 -23.3731 -22.1742 -21.7221 -21.4870 -21.2786 -20.8258 -20.7057
   -15.4952 -14.5816 -13.1008 -12.0086 -11.3298 -10.3380  -9.4765  -9.2122
    -9.0907  -8.7003  -8.4751  -7.9961  -7.7523  -7.7355  -7.6928  -7.6686
    -7.6624  -7.6597  -7.6573  -7.6557  -7.6424  -7.2789  -7.1315  -7.0746
    -7.0742  -7.0675  -7.0375  -7.0318  -7.0286  -6.8160  -6.6651  -6.6339
    -6.6130  -6.6072  -6.6063  -6.6023  -6.5875  -6.4569  -6.4353  -6.4243
    -6.3878  -6.3874  -6.3776  -6.3755  -6.3746  -6.3703  -6.0653  -5.9955
    -5.9918  -5.9835  -5.9764  -5.9709  -5.9655  -5.9641  -5.9628  -5.9613
    -5.9601  -5.9575  -5.9518  -5.8565  -5.7484  -5.7385  -5.7349  -5.7318
    -5.7306  -5.7161  -5.6814  -5.3313  -5.3292  -5.3168  -5.2451  -5.2207
    -5.2026  -5.1987  -5.1959  -5.1926  -5.1891  -5.1382  -5.0562  -5.0411
    -5.0321  -5.0283  -5.0242  -5.0215  -5.0051  -5.0001  -4.9819  -4.9478
    -4.9417  -4.9402  -4.9341  -4.9324  -4.8777  -4.8775  -4.7995  -4.7881
    -4.7795  -4.7724  -4.7702  -4.7666  -4.7559  -4.7399  -4.7381  -4.7298
    -4.7288  -4.7200  -4.6806  -4.5479  -4.5295  -4.5241  -4.5188  -4.5164
    -4.5096  -4.5088  -4.5046  -4.5024  -4.4978  -4.4959  -4.4951  -4.4403
    -4.4386  -4.4329  -4.2793  -4.2685  -4.2600  -4.2551  -4.2526  -4.2504
    -4.2159  -4.1052  -3.9007  -3.8822  -3.8802  -3.8696  -3.8676  -3.8654
    -3.8611  -3.6775  -3.6634  -3.6503  -3.6488  -3.6390  -3.6342  -3.6230
    -3.6069  -3.6032  -3.5524  -3.5485  -3.5304  -3.5083  -3.5046  -3.4992
    -3.4963  -3.4955  -3.4897  -3.4608  -3.4559  -3.4532  -3.4367  -3.4349
    -3.4299  -3.4287  -3.2811  -3.2625  -3.2521  -3.2509  -3.2433  -3.2179
    -3.1596  -3.1514  -3.1444  -3.0811  -2.9873  -2.9800  -2.9753  -2.8415
    -2.8336  -2.8113  -2.8080  -2.8018  -2.8004  -2.7987  -2.7953  -2.7727
    -2.6534  -2.6302  -2.6160  -2.6129  -2.6071  -2.6063  -2.5927  -2.5083
    -2.3819  -2.3793  -2.3738  -2.3196  -2.2624  -2.2621  -2.2577  -1.9938
    -1.7647  -1.7133  -1.6899  -1.6855  -1.6782  -1.6231  -1.5205  -0.3862
    -0.3772  -0.3747  -0.3718  -0.3658  -0.3631  -0.1758  -0.1167  -0.1136
    -0.1035   0.7778   0.7879

          k = 0.0000 0.0250 0.0000 (100010 PWs)   bands (ev):

  -106.3245-106.1830-106.1638-106.1401-106.1326-106.1303-106.1296-106.1255
  -106.1245-106.1208-106.1172-106.1167-106.1156-106.1150-106.1147-106.1135
  -106.1131-106.1127-106.1115-106.1112-106.1103-106.1093-106.1084-106.1079
  -106.1076-106.1072-106.1069-106.1064-106.1033-106.1031-106.1028-106.1015
   -57.6920 -57.6684 -57.5913 -57.5666 -57.5627 -57.5527 -57.5463 -57.5455
   -57.5424 -57.5394 -57.5327 -57.5286 -57.5263 -57.5246 -57.5229 -57.5206
   -57.5185 -57.5144 -57.5117 -57.5102 -57.5050 -57.5002 -57.4962 -57.4930
   -57.4893 -57.4824 -57.4809 -57.4793 -57.4714 -57.4669 -57.4648 -57.4619
   -57.4603 -57.4580 -57.4557 -57.4521 -57.4493 -57.4468 -57.4445 -57.4428
   -57.4410 -57.4394 -57.4376 -57.4342 -57.4305 -57.4276 -57.4253 -57.4247
   -57.4205 -57.4190 -57.4153 -57.4122 -57.4113 -57.4095 -57.4071 -57.4055
   -57.4012 -57.3999 -57.3967 -57.3952 -57.3922 -57.3914 -57.3884 -57.3872
   -57.3839 -57.3778 -57.3741 -57.3726 -57.3666 -57.3586 -57.3550 -57.3522
   -57.3428 -57.3399 -57.3352 -57.3311 -57.3283 -57.3263 -57.3211 -57.3184
   -57.3159 -57.3054 -57.3029 -57.2992 -57.2929 -57.2923 -57.2885 -57.2870
   -57.2847 -57.2825 -57.2807 -57.2788 -57.2756 -57.2745 -57.2733 -57.2693
   -23.8369 -23.3731 -22.1742 -21.7221 -21.4870 -21.2786 -20.8258 -20.7057
   -15.4952 -14.5816 -13.1007 -12.0086 -11.3297 -10.3378  -9.4747  -9.1180
    -9.0664  -8.7003  -8.4759  -8.2198  -7.9961  -7.8580  -7.8506  -7.7240
    -7.6638  -7.6296  -7.3645  -7.3583  -7.2886  -7.2718  -7.1299  -7.0973
    -7.0029  -6.9984  -6.9597  -6.9295  -6.9220  -6.8755  -6.8156  -6.6783
    -6.6516  -6.6149  -6.6092  -6.6041  -6.5832  -6.5130  -6.5112  -6.5024
    -6.4916  -6.4062  -6.3925  -6.3835  -6.2726  -6.2555  -6.2347  -6.2270
    -6.1165  -6.1068  -6.0879  -6.0732  -6.0630  -6.0200  -6.0026  -5.9982
    -5.9926  -5.9836  -5.9554  -5.9482  -5.8854  -5.8706  -5.8043  -5.7148
    -5.5997  -5.5875  -5.4426  -5.3738  -5.3700  -5.3240  -5.3019  -5.2976
    -5.2855  -5.2386  -5.1642  -5.1380  -5.1300  -5.1203  -5.1128  -5.0951
    -5.0735  -5.0690  -5.0530  -5.0431  -5.0316  -4.9893  -4.9816  -4.9574
    -4.9553  -4.9385  -4.9295  -4.9275  -4.9217  -4.9072  -4.8617  -4.8545
    -4.8249  -4.8201  -4.8071  -4.7871  -4.7791  -4.7112  -4.5822  -4.5672
    -4.5609  -4.5599  -4.5560  -4.5527  -4.5058  -4.5016  -4.4822  -4.4766
    -4.4320  -4.4252  -4.4129  -4.4089  -4.3985  -4.3871  -4.3825  -4.3790
    -4.3042  -4.2886  -4.2589  -4.2404  -4.2293  -4.2117  -4.2003  -4.1728
    -4.1617  -4.0849  -4.0328  -3.9768  -3.9643  -3.8976  -3.7570  -3.7234
    -3.7081  -3.6762  -3.6709  -3.6615  -3.6542  -3.6378  -3.6227  -3.5913
    -3.5708  -3.5529  -3.5212  -3.5073  -3.5042  -3.4980  -3.4929  -3.4654
    -3.4463  -3.4388  -3.4073  -3.3834  -3.3769  -3.3640  -3.3582  -3.2874
    -3.2789  -3.2485  -3.2456  -3.2267  -3.2165  -3.1995  -3.1566  -3.1543
    -3.1528  -3.1321  -3.1163  -3.0368  -3.0289  -3.0002  -2.9886  -2.9091
    -2.8661  -2.8587  -2.8536  -2.8505  -2.8170  -2.7996  -2.7937  -2.7718
    -2.7240  -2.7168  -2.6701  -2.6600  -2.6362  -2.6214  -2.6046  -2.5955
    -2.5869  -2.5135  -2.4809  -2.4247  -2.4227  -2.3822  -2.3204  -2.1138
    -1.9907  -1.8609  -1.7843  -1.6754  -1.4863  -1.4832  -1.3613  -1.3373
    -1.2905  -1.0892  -0.3813  -0.3765  -0.2949  -0.2923   0.1041   0.3111
     0.3274   0.8140   0.8529

          k = 0.0000-0.0501 0.0000 (100004 PWs)   bands (ev):

  -106.3245-106.1830-106.1638-106.1401-106.1326-106.1303-106.1296-106.1255
  -106.1245-106.1208-106.1172-106.1168-106.1157-106.1148-106.1147-106.1134
  -106.1131-106.1128-106.1117-106.1112-106.1100-106.1094-106.1084-106.1081
  -106.1077-106.1072-106.1068-106.1064-106.1033-106.1031-106.1027-106.1015
   -57.6918 -57.6682 -57.5908 -57.5623 -57.5595 -57.5523 -57.5469 -57.5407
   -57.5397 -57.5345 -57.5331 -57.5311 -57.5287 -57.5256 -57.5237 -57.5225
   -57.5203 -57.5145 -57.5137 -57.5094 -57.5074 -57.5029 -57.5000 -57.4993
   -57.4971 -57.4965 -57.4890 -57.4835 -57.4754 -57.4661 -57.4632 -57.4597
   -57.4565 -57.4540 -57.4520 -57.4483 -57.4465 -57.4441 -57.4409 -57.4354
   -57.4336 -57.4328 -57.4312 -57.4296 -57.4278 -57.4266 -57.4245 -57.4220
   -57.4189 -57.4155 -57.4149 -57.4121 -57.4100 -57.4082 -57.4072 -57.4060
   -57.4052 -57.4020 -57.4015 -57.3996 -57.3978 -57.3948 -57.3910 -57.3888
   -57.3825 -57.3801 -57.3758 -57.3744 -57.3674 -57.3573 -57.3542 -57.3492
   -57.3440 -57.3409 -57.3354 -57.3312 -57.3299 -57.3277 -57.3212 -57.3163
   -57.3139 -57.3058 -57.3033 -57.2991 -57.2937 -57.2926 -57.2890 -57.2862
   -57.2843 -57.2827 -57.2802 -57.2783 -57.2768 -57.2745 -57.2730 -57.2693
   -23.8369 -23.3731 -22.1742 -21.7221 -21.4870 -21.2786 -20.8258 -20.7057
   -15.4952 -14.5816 -13.1007 -12.0087 -11.3296 -10.3377  -9.4734  -9.0992
    -8.7516  -8.7403  -8.6877  -8.4729  -7.9986  -7.9201  -7.9115  -7.7240
    -7.6632  -7.3171  -7.2990  -7.2755  -7.1471  -7.1384  -7.1226  -6.9841
    -6.9766  -6.9750  -6.9719  -6.8245  -6.8226  -6.8103  -6.7879  -6.7853
    -6.7786  -6.7756  -6.6743  -6.6418  -6.6338  -6.6291  -6.5904  -6.5828
    -6.5564  -6.3226  -6.3126  -6.3030  -6.2954  -6.2930  -6.2847  -6.2789
    -6.2767  -6.2631  -6.2348  -6.2066  -6.1964  -6.0556  -6.0450  -6.0343
    -5.9890  -5.9711  -5.9621  -5.9598  -5.9524  -5.9459  -5.8080  -5.7119
    -5.5747  -5.5621  -5.4321  -5.4154  -5.2679  -5.2591  -5.2525  -5.2308
    -5.2148  -5.2104  -5.2063  -5.2025  -5.1947  -5.1591  -5.1521  -5.1249
    -5.1105  -5.1074  -5.1056  -5.1025  -5.0974  -5.0579  -5.0451  -4.9850
    -4.9799  -4.9565  -4.9502  -4.9462  -4.9402  -4.9388  -4.9313  -4.7473
    -4.7221  -4.7148  -4.7068  -4.7038  -4.6982  -4.6872  -4.6698  -4.6613
    -4.6554  -4.6512  -4.6161  -4.6026  -4.5692  -4.5572  -4.4247  -4.4151
    -4.3816  -4.3537  -4.3408  -4.3349  -4.3066  -4.2906  -4.2783  -4.2731
    -4.2568  -4.2421  -4.2117  -4.1415  -4.0855  -4.0627  -3.9793  -3.9675
    -3.9345  -3.9247  -3.9210  -3.9169  -3.9124  -3.9012  -3.8514  -3.7499
    -3.7348  -3.6516  -3.6430  -3.6325  -3.6251  -3.6217  -3.6164  -3.6055
    -3.5340  -3.5136  -3.5019  -3.4981  -3.4924  -3.4908  -3.4837  -3.4390
    -3.4316  -3.3545  -3.3430  -3.3187  -3.2982  -3.2234  -3.2095  -3.1998
    -3.1977  -3.1589  -3.1503  -3.1444  -3.1395  -3.0806  -3.0718  -3.0545
    -3.0525  -3.0443  -3.0417  -3.0291  -3.0124  -2.9453  -2.9244  -2.8772
    -2.8755  -2.8572  -2.8500  -2.8406  -2.8387  -2.8093  -2.7953  -2.7923
    -2.7842  -2.7674  -2.7210  -2.7086  -2.6940  -2.6850  -2.6696  -2.6408
    -2.5906  -2.5869  -2.5825  -2.5810  -2.5348  -2.4449  -2.4442  -2.4355
    -2.4347  -2.3787  -2.3005  -2.0009  -1.9049  -1.8027  -1.6811  -0.7019
    -0.6910  -0.6726  -0.6534  -0.3901  -0.3835  -0.3736  -0.3712  -0.2657
    -0.2229   0.7720   0.8085

          k = 0.0217 0.0375 0.0000 (100080 PWs)   bands (ev):

  -106.3245-106.1830-106.1638-106.1401-106.1326-106.1303-106.1296-106.1255
  -106.1245-106.1208-106.1172-106.1167-106.1157-106.1149-106.1147-106.1136
  -106.1131-106.1128-106.1116-106.1111-106.1101-106.1094-106.1085-106.1081
  -106.1076-106.1071-106.1068-106.1064-106.1033-106.1031-106.1027-106.1015
   -57.6918 -57.6682 -57.5909 -57.5632 -57.5590 -57.5524 -57.5477 -57.5421
   -57.5382 -57.5337 -57.5326 -57.5306 -57.5282 -57.5265 -57.5231 -57.5214
   -57.5193 -57.5174 -57.5132 -57.5107 -57.5076 -57.5062 -57.5034 -57.4969
   -57.4939 -57.4925 -57.4837 -57.4798 -57.4736 -57.4717 -57.4709 -57.4689
   -57.4568 -57.4549 -57.4487 -57.4477 -57.4430 -57.4417 -57.4380 -57.4370
   -57.4341 -57.4320 -57.4306 -57.4281 -57.4266 -57.4252 -57.4246 -57.4212
   -57.4204 -57.4171 -57.4156 -57.4135 -57.4107 -57.4085 -57.4067 -57.4056
   -57.4043 -57.4031 -57.4022 -57.3997 -57.3981 -57.3958 -57.3915 -57.3849
   -57.3825 -57.3813 -57.3761 -57.3741 -57.3674 -57.3589 -57.3534 -57.3494
   -57.3441 -57.3402 -57.3346 -57.3322 -57.3305 -57.3259 -57.3212 -57.3200
   -57.3113 -57.3062 -57.3036 -57.2976 -57.2953 -57.2923 -57.2884 -57.2869
   -57.2849 -57.2818 -57.2803 -57.2784 -57.2768 -57.2745 -57.2731 -57.2692
   -23.8369 -23.3731 -22.1742 -21.7221 -21.4870 -21.2786 -20.8258 -20.7057
   -15.4952 -14.5816 -13.1007 -12.0087 -11.3296 -10.3377  -9.4733  -9.0998
    -8.8530  -8.6994  -8.4876  -8.4087  -8.4019  -7.9932  -7.7248  -7.6651
    -7.4097  -7.3745  -7.3681  -7.2796  -7.1376  -7.1026  -7.0966  -7.0301
    -7.0285  -7.0212  -6.9991  -6.9003  -6.8303  -6.8207  -6.8175  -6.8103
    -6.8031  -6.7563  -6.7082  -6.6639  -6.6417  -6.6112  -6.4945  -6.4747
    -6.4588  -6.4491  -6.3543  -6.3408  -6.3236  -6.3149  -6.3006  -6.2428
    -6.2291  -6.1916  -6.1765  -6.1628  -6.1514  -6.1309  -6.1177  -6.1091
    -6.0299  -5.9684  -5.8893  -5.8806  -5.8628  -5.8266  -5.7513  -5.7463
    -5.7093  -5.4693  -5.4612  -5.4109  -5.3849  -5.3799  -5.2743  -5.2652
    -5.2523  -5.2414  -5.2328  -5.2277  -5.2227  -5.1626  -5.1476  -5.1414
    -5.1355  -5.1239  -5.1192  -5.1126  -5.0951  -5.0894  -5.0558  -5.0471
    -5.0374  -5.0226  -4.9861  -4.9040  -4.8923  -4.8875  -4.8417  -4.7721
    -4.7625  -4.7491  -4.7219  -4.6811  -4.6660  -4.6375  -4.6327  -4.6186
    -4.5821  -4.5046  -4.4947  -4.4793  -4.4636  -4.4469  -4.4375  -4.4186
    -4.4130  -4.3908  -4.3641  -4.3520  -4.2864  -4.2781  -4.2697  -4.2635
    -4.2383  -4.2352  -4.2045  -4.1351  -4.1019  -4.0818  -3.9852  -3.9744
    -3.9659  -3.9625  -3.9441  -3.8939  -3.8682  -3.8585  -3.8446  -3.8301
    -3.7675  -3.7619  -3.7407  -3.6512  -3.6455  -3.5768  -3.5600  -3.5429
    -3.5123  -3.5046  -3.4990  -3.4950  -3.4564  -3.4464  -3.4368  -3.4254
    -3.4118  -3.3788  -3.3729  -3.3618  -3.3492  -3.3340  -3.3202  -3.2796
    -3.1837  -3.1661  -3.1519  -3.1395  -3.1334  -3.1259  -3.1017  -3.0980
    -3.0693  -3.0573  -3.0500  -3.0259  -3.0115  -2.9555  -2.9474  -2.9388
    -2.9291  -2.8982  -2.8732  -2.8677  -2.8617  -2.8521  -2.7948  -2.7822
    -2.7792  -2.7458  -2.7398  -2.7320  -2.6970  -2.6788  -2.6530  -2.6499
    -2.6187  -2.5820  -2.5751  -2.5632  -2.5446  -2.4922  -2.4003  -2.3308
    -2.2721  -2.1559  -1.9577  -1.6874  -1.6449  -1.6412  -1.5556  -1.5480
    -1.4214  -1.3627  -0.7017  -0.5861  -0.5589   0.3392   0.3549   0.4662
     0.4912   0.5984   0.8782

          k =-0.0217 0.0125 0.0000 (100010 PWs)   bands (ev):

  -106.3245-106.1830-106.1638-106.1401-106.1326-106.1303-106.1296-106.1255
  -106.1245-106.1208-106.1172-106.1167-106.1155-106.1151-106.1146-106.1135
  -106.1132-106.1127-106.1115-106.1111-106.1104-106.1094-106.1085-106.1078
  -106.1076-106.1072-106.1069-106.1063-106.1033-106.1031-106.1028-106.1015
   -57.6921 -57.6682 -57.5915 -57.5673 -57.5612 -57.5518 -57.5470 -57.5450
   -57.5404 -57.5387 -57.5337 -57.5322 -57.5269 -57.5241 -57.5220 -57.5213
   -57.5190 -57.5141 -57.5119 -57.5103 -57.5083 -57.4997 -57.4947 -57.4900
   -57.4877 -57.4835 -57.4818 -57.4796 -57.4724 -57.4675 -57.4658 -57.4623
   -57.4609 -57.4550 -57.4540 -57.4500 -57.4495 -57.4476 -57.4444 -57.4431
   -57.4419 -57.4386 -57.4380 -57.4333 -57.4311 -57.4285 -57.4254 -57.4241
   -57.4211 -57.4164 -57.4150 -57.4148 -57.4123 -57.4095 -57.4073 -57.4064
   -57.4005 -57.3999 -57.3973 -57.3962 -57.3916 -57.3901 -57.3889 -57.3872
   -57.3838 -57.3780 -57.3746 -57.3714 -57.3671 -57.3577 -57.3549 -57.3525
   -57.3435 -57.3386 -57.3367 -57.3305 -57.3295 -57.3246 -57.3204 -57.3183
   -57.3171 -57.3058 -57.3022 -57.2991 -57.2942 -57.2918 -57.2875 -57.2864
   -57.2851 -57.2831 -57.2811 -57.2790 -57.2748 -57.2742 -57.2739 -57.2694
   -23.8369 -23.3731 -22.1742 -21.7221 -21.4870 -21.2786 -20.8258 -20.7057
   -15.4952 -14.5816 -13.1008 -12.0086 -11.3298 -10.3379  -9.4743  -9.1189
    -9.0657  -8.7003  -8.4766  -8.2186  -7.9936  -7.8594  -7.8549  -7.7202
    -7.6649  -7.6306  -7.3628  -7.3588  -7.2876  -7.2735  -7.1311  -7.0956
    -7.0025  -6.9994  -6.9594  -6.9280  -6.9243  -6.8755  -6.8150  -6.6723
    -6.6593  -6.6125  -6.6109  -6.6015  -6.5877  -6.5145  -6.5065  -6.5048
    -6.4906  -6.4079  -6.3956  -6.3751  -6.2633  -6.2581  -6.2373  -6.2276
    -6.1308  -6.1065  -6.0777  -6.0756  -6.0421  -6.0238  -6.0038  -6.0007
    -5.9932  -5.9846  -5.9547  -5.9494  -5.8956  -5.8696  -5.8091  -5.7211
    -5.5911  -5.5872  -5.4452  -5.3714  -5.3689  -5.3263  -5.3005  -5.2967
    -5.2863  -5.2401  -5.1624  -5.1374  -5.1301  -5.1178  -5.1108  -5.0935
    -5.0848  -5.0734  -5.0498  -5.0396  -5.0305  -4.9924  -4.9798  -4.9550
    -4.9526  -4.9378  -4.9297  -4.9253  -4.9231  -4.9064  -4.8604  -4.8514
    -4.8329  -4.8211  -4.8077  -4.7892  -4.7766  -4.7072  -4.5829  -4.5701
    -4.5648  -4.5585  -4.5533  -4.5477  -4.5087  -4.4999  -4.4813  -4.4722
    -4.4303  -4.4240  -4.4158  -4.4097  -4.4067  -4.3922  -4.3860  -4.3791
    -4.3006  -4.2890  -4.2677  -4.2424  -4.2186  -4.2098  -4.2035  -4.1626
    -4.1589  -4.0993  -4.0238  -3.9760  -3.9661  -3.8977  -3.7550  -3.7233
    -3.7076  -3.6761  -3.6682  -3.6643  -3.6493  -3.6435  -3.6202  -3.5965
    -3.5725  -3.5561  -3.5174  -3.5089  -3.5019  -3.4965  -3.4900  -3.4650
    -3.4533  -3.4355  -3.4079  -3.3869  -3.3749  -3.3657  -3.3558  -3.2840
    -3.2764  -3.2524  -3.2435  -3.2245  -3.2183  -3.2021  -3.1562  -3.1540
    -3.1523  -3.1308  -3.1171  -3.0350  -3.0309  -3.0038  -2.9917  -2.8934
    -2.8702  -2.8598  -2.8565  -2.8471  -2.8234  -2.7986  -2.7903  -2.7721
    -2.7221  -2.7202  -2.6685  -2.6609  -2.6375  -2.6177  -2.6072  -2.5932
    -2.5883  -2.5139  -2.4809  -2.4248  -2.4235  -2.3819  -2.3231  -2.1240
    -1.9663  -1.8622  -1.8032  -1.6660  -1.4856  -1.4829  -1.3576  -1.3395
    -1.2921  -1.0905  -0.3839  -0.3789  -0.2958  -0.2915   0.1052   0.3000
     0.3368   0.8150   0.8488

          k = 0.0217 0.0125 0.0000 (100010 PWs)   bands (ev):

  -106.3245-106.1830-106.1638-106.1401-106.1326-106.1303-106.1296-106.1255
  -106.1245-106.1208-106.1172-106.1166-106.1156-106.1151-106.1147-106.1136
  -106.1131-106.1127-106.1114-106.1109-106.1106-106.1094-106.1085-106.1080
  -106.1076-106.1071-106.1069-106.1064-106.1033-106.1031-106.1028-106.1015
   -57.6920 -57.6684 -57.5914 -57.5674 -57.5614 -57.5533 -57.5486 -57.5447
   -57.5423 -57.5403 -57.5313 -57.5278 -57.5272 -57.5238 -57.5223 -57.5194
   -57.5187 -57.5140 -57.5118 -57.5104 -57.5051 -57.5003 -57.4933 -57.4928
   -57.4878 -57.4867 -57.4818 -57.4788 -57.4768 -57.4676 -57.4646 -57.4615
   -57.4587 -57.4560 -57.4550 -57.4516 -57.4488 -57.4480 -57.4445 -57.4429
   -57.4421 -57.4396 -57.4368 -57.4326 -57.4305 -57.4281 -57.4259 -57.4246
   -57.4205 -57.4183 -57.4156 -57.4131 -57.4104 -57.4091 -57.4072 -57.4058
   -57.4015 -57.4005 -57.3967 -57.3947 -57.3923 -57.3910 -57.3885 -57.3875
   -57.3841 -57.3777 -57.3736 -57.3726 -57.3667 -57.3600 -57.3548 -57.3515
   -57.3433 -57.3396 -57.3343 -57.3312 -57.3286 -57.3249 -57.3224 -57.3202
   -57.3148 -57.3050 -57.3032 -57.2984 -57.2941 -57.2915 -57.2890 -57.2868
   -57.2853 -57.2821 -57.2804 -57.2791 -57.2756 -57.2744 -57.2734 -57.2693
   -23.8369 -23.3731 -22.1742 -21.7221 -21.4870 -21.2786 -20.8258 -20.7057
   -15.4952 -14.5816 -13.1008 -12.0086 -11.3297 -10.3379  -9.4744  -9.1190
    -9.0655  -8.7004  -8.4759  -8.2194  -7.9968  -7.8595  -7.8499  -7.7213
    -7.6647  -7.6300  -7.3651  -7.3574  -7.2892  -7.2716  -7.1309  -7.0967
    -7.0027  -6.9982  -6.9619  -6.9256  -6.9225  -6.8762  -6.8155  -6.6813
    -6.6446  -6.6141  -6.6103  -6.6041  -6.5854  -6.5138  -6.5083  -6.5040
    -6.4960  -6.4081  -6.3875  -6.3845  -6.2669  -6.2571  -6.2364  -6.2285
    -6.1250  -6.1080  -6.0787  -6.0761  -6.0551  -6.0187  -6.0015  -5.9970
    -5.9938  -5.9859  -5.9539  -5.9481  -5.8952  -5.8679  -5.8071  -5.7210
    -5.5931  -5.5864  -5.4449  -5.3725  -5.3688  -5.3255  -5.2999  -5.2972
    -5.2867  -5.2391  -5.1635  -5.1371  -5.1289  -5.1190  -5.1098  -5.0971
    -5.0834  -5.0714  -5.0443  -5.0386  -5.0320  -4.9943  -4.9791  -4.9565
    -4.9516  -4.9376  -4.9303  -4.9261  -4.9220  -4.9072  -4.8581  -4.8522
    -4.8362  -4.8191  -4.8074  -4.7910  -4.7736  -4.7090  -4.5876  -4.5727
    -4.5633  -4.5578  -4.5532  -4.5465  -4.5067  -4.5008  -4.4815  -4.4718
    -4.4324  -4.4264  -4.4133  -4.4086  -4.4018  -4.3892  -4.3853  -4.3798
    -4.2999  -4.2900  -4.2594  -4.2411  -4.2356  -4.2104  -4.2011  -4.1716
    -4.1573  -4.0940  -4.0224  -3.9759  -3.9662  -3.8979  -3.7573  -3.7134
    -3.7091  -3.6824  -3.6734  -3.6615  -3.6472  -3.6411  -3.6196  -3.5977
    -3.5712  -3.5547  -3.5213  -3.5087  -3.5041  -3.4968  -3.4945  -3.4585
    -3.4495  -3.4399  -3.4077  -3.3812  -3.3729  -3.3663  -3.3620  -3.2894
    -3.2759  -3.2499  -3.2441  -3.2328  -3.2179  -3.1888  -3.1567  -3.1545
    -3.1528  -3.1376  -3.1164  -3.0327  -3.0288  -3.0015  -2.9890  -2.9077
    -2.8697  -2.8613  -2.8509  -2.8461  -2.8152  -2.8025  -2.7953  -2.7711
    -2.7286  -2.7161  -2.6690  -2.6605  -2.6359  -2.6134  -2.6043  -2.5916
    -2.5880  -2.5200  -2.4811  -2.4250  -2.4245  -2.3819  -2.3213  -2.1166
    -1.9706  -1.8582  -1.8042  -1.6742  -1.4868  -1.4832  -1.3596  -1.3371
    -1.2948  -1.0871  -0.3802  -0.3776  -0.2945  -0.2923   0.1052   0.2996
     0.3366   0.8111   0.8500

          k = 0.0433-0.0250 0.0000 (100004 PWs)   bands (ev):

  -106.3245-106.1830-106.1638-106.1401-106.1326-106.1303-106.1296-106.1255
  -106.1245-106.1208-106.1173-106.1167-106.1155-106.1150-106.1146-106.1135
  -106.1132-106.1128-106.1117-106.1111-106.1101-106.1094-106.1084-106.1081
  -106.1076-106.1072-106.1069-106.1063-106.1033-106.1031-106.1028-106.1015
   -57.6920 -57.6679 -57.5911 -57.5636 -57.5578 -57.5483 -57.5438 -57.5404
   -57.5399 -57.5364 -57.5347 -57.5334 -57.5290 -57.5267 -57.5259 -57.5215
   -57.5205 -57.5172 -57.5155 -57.5116 -57.5076 -57.5012 -57.4990 -57.4979
   -57.4976 -57.4919 -57.4888 -57.4817 -57.4762 -57.4685 -57.4664 -57.4597
   -57.4584 -57.4505 -57.4489 -57.4457 -57.4443 -57.4428 -57.4410 -57.4366
   -57.4357 -57.4346 -57.4313 -57.4303 -57.4267 -57.4256 -57.4231 -57.4198
   -57.4188 -57.4164 -57.4149 -57.4120 -57.4113 -57.4099 -57.4093 -57.4068
   -57.4063 -57.4045 -57.4024 -57.3997 -57.3963 -57.3915 -57.3910 -57.3886
   -57.3824 -57.3815 -57.3758 -57.3727 -57.3678 -57.3572 -57.3527 -57.3501
   -57.3443 -57.3404 -57.3371 -57.3324 -57.3299 -57.3250 -57.3201 -57.3173
   -57.3148 -57.3069 -57.3015 -57.2992 -57.2955 -57.2925 -57.2864 -57.2857
   -57.2854 -57.2825 -57.2822 -57.2788 -57.2748 -57.2742 -57.2739 -57.2693
   -23.8369 -23.3731 -22.1742 -21.7221 -21.4870 -21.2786 -20.8258 -20.7057
   -15.4952 -14.5816 -13.1007 -12.0086 -11.3298 -10.3378  -9.4728  -9.0997
    -8.7478  -8.7361  -8.6988  -8.4688  -7.9946  -7.9217  -7.9174  -7.7209
    -7.6641  -7.3230  -7.2939  -7.2764  -7.1533  -7.1325  -7.1189  -6.9862
    -6.9754  -6.9745  -6.9740  -6.8302  -6.8186  -6.8071  -6.7918  -6.7862
    -6.7795  -6.7770  -6.6665  -6.6429  -6.6293  -6.6279  -6.5871  -6.5818
    -6.5693  -6.3280  -6.3101  -6.3065  -6.2952  -6.2951  -6.2894  -6.2738
    -6.2735  -6.2417  -6.2298  -6.2036  -6.1989  -6.0572  -6.0504  -6.0433
    -5.9817  -5.9685  -5.9648  -5.9618  -5.9513  -5.9463  -5.8219  -5.7204
    -5.5722  -5.5634  -5.4207  -5.4158  -5.2706  -5.2599  -5.2449  -5.2298
    -5.2223  -5.2076  -5.2051  -5.2018  -5.1892  -5.1671  -5.1488  -5.1288
    -5.1131  -5.1081  -5.1057  -5.0997  -5.0970  -5.0514  -5.0481  -4.9865
    -4.9771  -4.9615  -4.9550  -4.9455  -4.9379  -4.9344  -4.9292  -4.7541
    -4.7212  -4.7104  -4.7077  -4.7024  -4.6959  -4.6923  -4.6728  -4.6603
    -4.6534  -4.6450  -4.6180  -4.5991  -4.5652  -4.5563  -4.4297  -4.4250
    -4.3798  -4.3585  -4.3488  -4.3350  -4.2975  -4.2868  -4.2784  -4.2773
    -4.2671  -4.2437  -4.2083  -4.1404  -4.0865  -4.0516  -3.9800  -3.9689
    -3.9396  -3.9285  -3.9165  -3.9143  -3.9094  -3.9048  -3.8381  -3.7495
    -3.7328  -3.6610  -3.6469  -3.6325  -3.6229  -3.6185  -3.6146  -3.6043
    -3.5270  -3.5109  -3.5054  -3.5039  -3.4927  -3.4888  -3.4862  -3.4472
    -3.4270  -3.3603  -3.3432  -3.3232  -3.2986  -3.2141  -3.2038  -3.2013
    -3.1964  -3.1626  -3.1555  -3.1435  -3.1348  -3.0855  -3.0688  -3.0616
    -3.0486  -3.0432  -3.0404  -3.0271  -3.0125  -2.9371  -2.9255  -2.8834
    -2.8740  -2.8573  -2.8483  -2.8444  -2.8403  -2.8136  -2.7919  -2.7871
    -2.7774  -2.7731  -2.7247  -2.7057  -2.6951  -2.6814  -2.6599  -2.6424
    -2.5986  -2.5870  -2.5791  -2.5754  -2.5354  -2.4459  -2.4436  -2.4374
    -2.4357  -2.4021  -2.2903  -1.9768  -1.8991  -1.8408  -1.6638  -0.7121
    -0.6940  -0.6894  -0.6254  -0.3984  -0.3902  -0.3683  -0.3664  -0.2609
    -0.2318   0.7655   0.8103

          k =-0.0433-0.0250 0.0000 (100004 PWs)   bands (ev):

  -106.3245-106.1830-106.1638-106.1401-106.1326-106.1303-106.1296-106.1255
  -106.1245-106.1208-106.1172-106.1166-106.1157-106.1151-106.1147-106.1136
  -106.1131-106.1127-106.1115-106.1109-106.1104-106.1094-106.1085-106.1082
  -106.1076-106.1071-106.1068-106.1064-106.1033-106.1031-106.1027-106.1015
   -57.6918 -57.6682 -57.5909 -57.5639 -57.5575 -57.5533 -57.5496 -57.5420
   -57.5363 -57.5343 -57.5328 -57.5323 -57.5287 -57.5267 -57.5223 -57.5215
   -57.5163 -57.5159 -57.5125 -57.5094 -57.5077 -57.5008 -57.5005 -57.4985
   -57.4968 -57.4962 -57.4912 -57.4836 -57.4803 -57.4704 -57.4643 -57.4578
   -57.4558 -57.4537 -57.4507 -57.4488 -57.4443 -57.4417 -57.4407 -57.4373
   -57.4349 -57.4333 -57.4316 -57.4291 -57.4271 -57.4255 -57.4227 -57.4222
   -57.4191 -57.4162 -57.4132 -57.4121 -57.4112 -57.4087 -57.4080 -57.4064
   -57.4049 -57.4028 -57.4017 -57.3999 -57.3958 -57.3952 -57.3903 -57.3893
   -57.3830 -57.3804 -57.3754 -57.3735 -57.3673 -57.3606 -57.3527 -57.3480
   -57.3451 -57.3407 -57.3345 -57.3310 -57.3299 -57.3249 -57.3244 -57.3194
   -57.3117 -57.3058 -57.3028 -57.2978 -57.2956 -57.2919 -57.2890 -57.2863
   -57.2857 -57.2809 -57.2805 -57.2785 -57.2768 -57.2745 -57.2731 -57.2692
   -23.8369 -23.3731 -22.1742 -21.7221 -21.4870 -21.2786 -20.8258 -20.7057
   -15.4952 -14.5816 -13.1007 -12.0087 -11.3296 -10.3377  -9.4730  -9.0999
    -8.7455  -8.7434  -8.6914  -8.4719  -8.0000  -7.9200  -7.9116  -7.7214
    -7.6638  -7.3167  -7.2992  -7.2768  -7.1498  -7.1348  -7.1236  -6.9838
    -6.9787  -6.9740  -6.9714  -6.8254  -6.8213  -6.8126  -6.7875  -6.7830
    -6.7788  -6.7754  -6.6605  -6.6417  -6.6349  -6.6306  -6.5960  -6.5834
    -6.5649  -6.3246  -6.3083  -6.3071  -6.2953  -6.2939  -6.2811  -6.2800
    -6.2759  -6.2545  -6.2339  -6.2039  -6.1974  -6.0697  -6.0448  -6.0296
    -5.9881  -5.9705  -5.9652  -5.9540  -5.9508  -5.9445  -5.8190  -5.7203
    -5.5722  -5.5630  -5.4228  -5.4160  -5.2661  -5.2645  -5.2420  -5.2260
    -5.2142  -5.2095  -5.2081  -5.2052  -5.1963  -5.1660  -5.1503  -5.1248
    -5.1135  -5.1055  -5.1040  -5.1008  -5.0998  -5.0470  -5.0464  -4.9862
    -4.9792  -4.9610  -4.9531  -4.9465  -4.9445  -4.9354  -4.9263  -4.7472
    -4.7199  -4.7156  -4.7090  -4.7067  -4.6994  -4.6921  -4.6664  -4.6587
    -4.6565  -4.6449  -4.6142  -4.6031  -4.5625  -4.5598  -4.4366  -4.4267
    -4.3721  -4.3535  -4.3407  -4.3347  -4.3057  -4.2869  -4.2807  -4.2766
    -4.2552  -4.2408  -4.2104  -4.1457  -4.0853  -4.0573  -3.9782  -3.9686
    -3.9315  -3.9287  -3.9198  -3.9179  -3.9136  -3.9009  -3.8558  -3.7413
    -3.7375  -3.6634  -3.6401  -3.6282  -3.6246  -3.6193  -3.6130  -3.6067
    -3.5287  -3.5182  -3.5051  -3.5027  -3.4965  -3.4893  -3.4856  -3.4403
    -3.4315  -3.3505  -3.3384  -3.3220  -3.2950  -3.2239  -3.2145  -3.2003
    -3.1971  -3.1551  -3.1516  -3.1457  -3.1373  -3.0804  -3.0711  -3.0595
    -3.0468  -3.0464  -3.0352  -3.0280  -3.0169  -2.9429  -2.9235  -2.8876
    -2.8697  -2.8568  -2.8447  -2.8429  -2.8398  -2.8102  -2.7963  -2.7862
    -2.7804  -2.7782  -2.7209  -2.7092  -2.6938  -2.6852  -2.6633  -2.6431
    -2.5940  -2.5856  -2.5819  -2.5763  -2.5437  -2.4445  -2.4443  -2.4361
    -2.4355  -2.3796  -2.2922  -1.9802  -1.8968  -1.8414  -1.6725  -0.7344
    -0.6819  -0.6777  -0.6259  -0.3889  -0.3834  -0.3729  -0.3719  -0.2675
    -0.2264   0.7549   0.8288

          k =-0.0217 0.0375 0.0000 (100080 PWs)   bands (ev):

  -106.3245-106.1830-106.1638-106.1401-106.1326-106.1303-106.1296-106.1255
  -106.1245-106.1208-106.1172-106.1168-106.1156-106.1149-106.1146-106.1135
  -106.1132-106.1128-106.1117-106.1112-106.1100-106.1094-106.1084-106.1081
  -106.1076-106.1072-106.1069-106.1064-106.1033-106.1031-106.1028-106.1015
   -57.6919 -57.6681 -57.5910 -57.5622 -57.5602 -57.5494 -57.5447 -57.5418
   -57.5387 -57.5373 -57.5328 -57.5311 -57.5291 -57.5256 -57.5235 -57.5228
   -57.5201 -57.5177 -57.5147 -57.5116 -57.5098 -57.5056 -57.5035 -57.4958
   -57.4935 -57.4891 -57.4845 -57.4783 -57.4741 -57.4720 -57.4709 -57.4645
   -57.4592 -57.4539 -57.4488 -57.4468 -57.4449 -57.4420 -57.4392 -57.4362
   -57.4339 -57.4315 -57.4306 -57.4292 -57.4264 -57.4240 -57.4215 -57.4214
   -57.4197 -57.4174 -57.4164 -57.4147 -57.4118 -57.4108 -57.4074 -57.4059
   -57.4042 -57.4032 -57.4015 -57.4002 -57.3981 -57.3952 -57.3911 -57.3843
   -57.3828 -57.3812 -57.3763 -57.3737 -57.3676 -57.3571 -57.3532 -57.3504
   -57.3444 -57.3396 -57.3366 -57.3325 -57.3302 -57.3251 -57.3202 -57.3194
   -57.3122 -57.3072 -57.3022 -57.2992 -57.2946 -57.2926 -57.2876 -57.2862
   -57.2845 -57.2826 -57.2813 -57.2787 -57.2756 -57.2746 -57.2733 -57.2693
   -23.8369 -23.3731 -22.1742 -21.7221 -21.4870 -21.2786 -20.8258 -20.7057
   -15.4952 -14.5816 -13.1007 -12.0086 -11.3297 -10.3378  -9.4732  -9.0997
    -8.8529  -8.7000  -8.4868  -8.4094  -8.4011  -7.9931  -7.7250  -7.6651
    -7.4098  -7.3767  -7.3691  -7.2770  -7.1409  -7.1006  -7.0955  -7.0298
    -7.0282  -7.0163  -7.0015  -6.8989  -6.8419  -6.8229  -6.8118  -6.8070
    -6.8035  -6.7540  -6.7229  -6.6516  -6.6437  -6.6095  -6.4889  -6.4727
    -6.4598  -6.4477  -6.3522  -6.3494  -6.3319  -6.3126  -6.2936  -6.2379
    -6.2323  -6.1896  -6.1736  -6.1657  -6.1525  -6.1330  -6.1169  -6.1075
    -6.0300  -5.9687  -5.8924  -5.8800  -5.8627  -5.8275  -5.7492  -5.7438
    -5.7133  -5.4673  -5.4627  -5.4118  -5.3837  -5.3807  -5.2741  -5.2648
    -5.2514  -5.2439  -5.2360  -5.2270  -5.2213  -5.1611  -5.1465  -5.1405
    -5.1335  -5.1253  -5.1205  -5.1168  -5.0942  -5.0874  -5.0572  -5.0487
    -5.0337  -5.0245  -4.9872  -4.9077  -4.8936  -4.8865  -4.8431  -4.7689
    -4.7629  -4.7481  -4.7118  -4.6835  -4.6651  -4.6391  -4.6312  -4.6200
    -4.5839  -4.5028  -4.4973  -4.4780  -4.4667  -4.4431  -4.4378  -4.4170
    -4.4148  -4.3808  -4.3715  -4.3541  -4.3029  -4.2781  -4.2659  -4.2628
    -4.2435  -4.2271  -4.2041  -4.1430  -4.1034  -4.0645  -3.9820  -3.9725
    -3.9688  -3.9634  -3.9512  -3.9047  -3.8650  -3.8554  -3.8414  -3.8000
    -3.7832  -3.7636  -3.7453  -3.6520  -3.6471  -3.5788  -3.5638  -3.5556
    -3.5109  -3.5041  -3.4994  -3.4704  -3.4568  -3.4472  -3.4390  -3.4302
    -3.4024  -3.3843  -3.3742  -3.3641  -3.3482  -3.3380  -3.3222  -3.2773
    -3.1793  -3.1688  -3.1478  -3.1370  -3.1337  -3.1276  -3.1013  -3.0992
    -3.0668  -3.0593  -3.0538  -3.0268  -3.0099  -2.9534  -2.9484  -2.9333
    -2.9291  -2.9015  -2.8806  -2.8653  -2.8606  -2.8494  -2.7926  -2.7829
    -2.7800  -2.7502  -2.7396  -2.7300  -2.7003  -2.6750  -2.6532  -2.6476
    -2.6186  -2.5777  -2.5746  -2.5582  -2.5482  -2.5000  -2.3997  -2.3358
    -2.2751  -2.1507  -1.9577  -1.6882  -1.6470  -1.6428  -1.5539  -1.5490
    -1.4224  -1.3534  -0.7024  -0.5902  -0.5577   0.3308   0.3624   0.4592
     0.5016   0.5933   0.8733

          k = 0.0433 0.0000 0.0000 (100080 PWs)   bands (ev):

  -106.3245-106.1830-106.1638-106.1401-106.1326-106.1303-106.1296-106.1255
  -106.1245-106.1208-106.1172-106.1167-106.1156-106.1150-106.1146-106.1136
  -106.1131-106.1127-106.1116-106.1110-106.1102-106.1094-106.1085-106.1080
  -106.1076-106.1071-106.1068-106.1064-106.1033-106.1031-106.1028-106.1015
   -57.6919 -57.6680 -57.5910 -57.5632 -57.5592 -57.5497 -57.5467 -57.5417
   -57.5384 -57.5352 -57.5341 -57.5309 -57.5297 -57.5261 -57.5235 -57.5205
   -57.5190 -57.5175 -57.5147 -57.5116 -57.5078 -57.5069 -57.5012 -57.4995
   -57.4941 -57.4879 -57.4841 -57.4811 -57.4743 -57.4721 -57.4711 -57.4651
   -57.4600 -57.4532 -57.4491 -57.4454 -57.4448 -57.4413 -57.4384 -57.4359
   -57.4351 -57.4317 -57.4311 -57.4284 -57.4268 -57.4239 -57.4226 -57.4208
   -57.4187 -57.4173 -57.4157 -57.4138 -57.4126 -57.4103 -57.4077 -57.4070
   -57.4057 -57.4033 -57.4007 -57.3998 -57.3987 -57.3941 -57.3911 -57.3847
   -57.3834 -57.3811 -57.3756 -57.3737 -57.3676 -57.3587 -57.3527 -57.3488
   -57.3461 -57.3385 -57.3361 -57.3328 -57.3300 -57.3248 -57.3215 -57.3195
   -57.3123 -57.3066 -57.3023 -57.2981 -57.2959 -57.2922 -57.2877 -57.2861
   -57.2853 -57.2818 -57.2812 -57.2788 -57.2756 -57.2746 -57.2734 -57.2693
   -23.8369 -23.3731 -22.1742 -21.7221 -21.4870 -21.2786 -20.8258 -20.7057
   -15.4952 -14.5816 -13.1007 -12.0086 -11.3297 -10.3378  -9.4729  -9.1001
    -8.8522  -8.7011  -8.4852  -8.4125  -8.3993  -7.9932  -7.7247  -7.6649
    -7.4103  -7.3779  -7.3681  -7.2775  -7.1361  -7.1042  -7.0955  -7.0304
    -7.0278  -7.0175  -7.0012  -6.9011  -6.8357  -6.8227  -6.8157  -6.8070
    -6.8028  -6.7543  -6.7151  -6.6605  -6.6441  -6.6077  -6.4888  -6.4755
    -6.4566  -6.4469  -6.3554  -6.3477  -6.3359  -6.3046  -6.2954  -6.2418
    -6.2290  -6.1900  -6.1757  -6.1692  -6.1537  -6.1256  -6.1157  -6.1069
    -6.0319  -5.9690  -5.8862  -5.8782  -5.8601  -5.8484  -5.7495  -5.7382
    -5.7118  -5.4644  -5.4568  -5.4213  -5.3834  -5.3812  -5.2722  -5.2657
    -5.2519  -5.2419  -5.2367  -5.2267  -5.2211  -5.1565  -5.1502  -5.1405
    -5.1368  -5.1256  -5.1191  -5.1162  -5.0945  -5.0872  -5.0576  -5.0487
    -5.0318  -5.0247  -4.9820  -4.9096  -4.8911  -4.8871  -4.8430  -4.7721
    -4.7591  -4.7445  -4.7082  -4.6892  -4.6651  -4.6491  -4.6274  -4.6229
    -4.5850  -4.5038  -4.4957  -4.4719  -4.4677  -4.4460  -4.4401  -4.4186
    -4.4146  -4.3844  -4.3572  -4.3511  -4.3069  -4.2777  -4.2680  -4.2648
    -4.2387  -4.2312  -4.2010  -4.1469  -4.1023  -4.0714  -3.9815  -3.9717
    -3.9663  -3.9630  -3.9466  -3.9071  -3.8634  -3.8571  -3.8460  -3.8126
    -3.7730  -3.7624  -3.7401  -3.6583  -3.6436  -3.5749  -3.5618  -3.5495
    -3.5109  -3.5063  -3.4965  -3.4776  -3.4614  -3.4526  -3.4437  -3.4253
    -3.4078  -3.3771  -3.3696  -3.3655  -3.3465  -3.3381  -3.3248  -3.2779
    -3.1842  -3.1603  -3.1472  -3.1371  -3.1357  -3.1275  -3.1019  -3.0980
    -3.0689  -3.0583  -3.0532  -3.0236  -3.0136  -2.9576  -2.9432  -2.9391
    -2.9261  -2.8993  -2.8824  -2.8625  -2.8594  -2.8561  -2.7961  -2.7831
    -2.7728  -2.7461  -2.7381  -2.7350  -2.6957  -2.6719  -2.6537  -2.6485
    -2.6198  -2.5818  -2.5741  -2.5587  -2.5485  -2.5038  -2.3994  -2.3315
    -2.2735  -2.1503  -1.9566  -1.6894  -1.6456  -1.6437  -1.5550  -1.5485
    -1.4048  -1.3759  -0.7052  -0.5862  -0.5590   0.3294   0.3679   0.4653
     0.4870   0.6013   0.8726

     the Fermi energy is    -1.0609 ev

!    total energy              =   -9129.51387629 Ry
     Harris-Foulkes estimate   =   -9129.51387560 Ry
     estimated scf accuracy    <       0.00000034 Ry

     The total energy is the sum of the following terms:

     one-electron contribution =  -83480.24632054 Ry
     hartree contribution      =   41581.31969188 Ry
     xc contribution           =    -897.80966905 Ry
     ewald contribution        =   33667.23648776 Ry
     smearing contrib. (-TS)   =      -0.01406635 Ry

     convergence has been achieved in  43 iterations

     Forces acting on atoms (Ry/au):


     negative rho (up, down):  4.999E-03 0.000E+00
     atom    1 type  1   force =    -0.00024876   -0.00028980   -0.02462078
     atom    2 type  1   force =    -0.00055748   -0.00042900    0.02386088
     atom    3 type  1   force =    -0.00002506   -0.00001900   -0.02365638
     atom    4 type  1   force =    -0.00003701    0.00018199    0.02399543
     atom    5 type  1   force =    -0.00035423   -0.00007882   -0.02440773
     atom    6 type  1   force =    -0.00007896   -0.00008933    0.02401549
     atom    7 type  1   force =     0.00020286    0.00010759   -0.02476529
     atom    8 type  1   force =     0.00015920    0.00003869    0.02436821
     atom    9 type  1   force =     0.00009613    0.00003006   -0.02486049
     atom   10 type  1   force =     0.00063511   -0.00059731    0.02399930
     atom   11 type  1   force =    -0.00012316    0.00025854   -0.02434310
     atom   12 type  1   force =    -0.00132325   -0.00184357    0.02180436
     atom   13 type  1   force =     0.00018816   -0.00011286   -0.02478822
     atom   14 type  1   force =    -0.00344470   -0.00009224    0.02189517
     atom   15 type  1   force =     0.00009651    0.00000892   -0.02406379
     atom   16 type  1   force =     0.00013743   -0.00004607    0.02429418
     atom   17 type  1   force =    -0.00006631    0.00005659   -0.02481293
     atom   18 type  1   force =     0.00018461   -0.00003534    0.02394731
     atom   19 type  1   force =     0.00005943   -0.00016977   -0.02452232
     atom   20 type  1   force =     0.00127936   -0.00233938    0.02259226
     atom   21 type  1   force =    -0.00017300   -0.00009097   -0.02334479
     atom   22 type  1   force =    -0.00555890   -0.00876584   -0.03320068
     atom   23 type  1   force =    -0.00014755    0.00000699   -0.02372679
     atom   24 type  1   force =    -0.00200467    0.00276093    0.02320667
     atom   25 type  1   force =     0.00025639   -0.00009197   -0.02387704
     atom   26 type  1   force =     0.00011074    0.00028192    0.02394485
     atom   27 type  1   force =     0.00004195    0.00019570   -0.02439793
     atom   28 type  1   force =    -0.00005932    0.00005456    0.02401246
     atom   29 type  1   force =     0.00005652   -0.00012575   -0.02295264
     atom   30 type  1   force =     0.00276491   -0.00008290    0.02298036
     atom   31 type  1   force =    -0.00008176    0.00010122   -0.02309178
     atom   32 type  1   force =     0.00141573    0.00204433    0.02340560
     atom   33 type  2   force =    -0.00341516   -0.01974431   -0.01292038
     atom   34 type  2   force =     0.01364029   -0.00398298    0.00754240
     atom   35 type  2   force =    -0.01087084    0.00971448    0.01195126
     atom   36 type  2   force =    -0.00235083   -0.00788806    0.02127791
     atom   37 type  2   force =    -0.02428961    0.02505416   -0.00545798
     atom   38 type  2   force =     0.00459420   -0.03685564    0.04574116
     atom   39 type  2   force =    -0.02943452    0.02395742   -0.00850781
     atom   40 type  2   force =     0.00246369   -0.03420465   -0.00538788
     atom   41 type  3   force =     0.02726993    0.00280575    0.02317394
     atom   42 type  3   force =    -0.00422491    0.02717764    0.00344800
     atom   43 type  3   force =     0.00012622   -0.02845645    0.02429241
     atom   44 type  3   force =    -0.03730745   -0.00536036    0.00411319
     atom   45 type  3   force =     0.06009317   -0.04062999   -0.01289634
     atom   46 type  3   force =     0.01086779    0.04692881   -0.00481480
     atom   47 type  4   force =    -0.02382612    0.00708206   -0.00819671
     atom   48 type  4   force =     0.00026517   -0.00239832   -0.00467411
     atom   49 type  4   force =    -0.00175515    0.01738783   -0.01124646
     atom   50 type  4   force =     0.00650869   -0.01548970   -0.01777987
     atom   51 type  4   force =    -0.00155962    0.00439880   -0.00804883
     atom   52 type  4   force =    -0.00638061    0.00663005   -0.00243837
     atom   53 type  4   force =     0.00236993    0.00057798    0.00217463
     atom   54 type  4   force =     0.00428678    0.00652570    0.00581834
     atom   55 type  4   force =     0.00903938   -0.00739682    0.00616101
     atom   56 type  4   force =     0.01048866    0.03333848    0.01378545

     Total force =     0.210462     Total SCF correction =     0.001724
 !ASE

     Writing output data file calc.save
     Check: negative starting charge=   -0.002236
     NEW-OLD atomic charge density approx. for the potential
     Check: negative starting charge=   -0.002232

     negative rho (up, down):  5.879E-03 0.000E+00

     total cpu time spent up to now is    18495.2 secs

     per-process dynamical memory:   848.1 Mb

     Self-consistent Calculation

     iteration #  1     ecut=    40.42 Ry     beta=0.07
     Davidson diagonalization with overlap
     ethr =  1.42E-10,  avg # of iterations = 10.0

     negative rho (up, down):  5.277E-03 0.000E+00

     total cpu time spent up to now is    19749.6 secs

     total energy              =   -9128.97410913 Ry
     Harris-Foulkes estimate   =   -9128.98525136 Ry
     estimated scf accuracy    <       0.23215040 Ry

     iteration #  2     ecut=    40.42 Ry     beta=0.07
     Davidson diagonalization with overlap
     ethr =  3.36E-05,  avg # of iterations =  1.0

     negative rho (up, down):  9.714E-03 0.000E+00

     total cpu time spent up to now is    20130.7 secs

     total energy              =   -9128.87365886 Ry
     Harris-Foulkes estimate   =   -9128.97427098 Ry
     estimated scf accuracy    <       0.20361167 Ry

     iteration #  3     ecut=    40.42 Ry     beta=0.07
     Davidson diagonalization with overlap
     ethr =  2.95E-05,  avg # of iterations =  3.0

     negative rho (up, down):  9.279E-03 0.000E+00

     total cpu time spent up to now is    20565.6 secs

     total energy              =   -9128.90483083 Ry
     Harris-Foulkes estimate   =   -9128.90414262 Ry
     estimated scf accuracy    <       0.03310171 Ry

     iteration #  4     ecut=    40.42 Ry     beta=0.07
     Davidson diagonalization with overlap
     ethr =  4.80E-06,  avg # of iterations =  1.0

     negative rho (up, down):  6.992E-03 0.000E+00

     total cpu time spent up to now is    20952.2 secs

     total energy              =   -9128.89223502 Ry
     Harris-Foulkes estimate   =   -9128.90492304 Ry
     estimated scf accuracy    <       0.03574441 Ry

     iteration #  5     ecut=    40.42 Ry     beta=0.07
     Davidson diagonalization with overlap
     ethr =  4.80E-06,  avg # of iterations =  3.0

     negative rho (up, down):  6.758E-03 0.000E+00

     total cpu time spent up to now is    21395.8 secs

     total energy              =   -9128.89720247 Ry
     Harris-Foulkes estimate   =   -9128.89736036 Ry
     estimated scf accuracy    <       0.00901119 Ry

     iteration #  6     ecut=    40.42 Ry     beta=0.07
     Davidson diagonalization with overlap
     ethr =  1.31E-06,  avg # of iterations =  2.0

     negative rho (up, down):  4.721E-03 0.000E+00

     total cpu time spent up to now is    21794.7 secs

     total energy              =   -9128.89572288 Ry
     Harris-Foulkes estimate   =   -9128.89732082 Ry
     estimated scf accuracy    <       0.00866838 Ry

     iteration #  7     ecut=    40.42 Ry     beta=0.07
     Davidson diagonalization with overlap
     ethr =  1.26E-06,  avg # of iterations =  2.8

     negative rho (up, down):  3.596E-03 0.000E+00

     total cpu time spent up to now is    22213.1 secs

     total energy              =   -9128.89523950 Ry
     Harris-Foulkes estimate   =   -9128.89619548 Ry
     estimated scf accuracy    <       0.00444216 Ry

     iteration #  8     ecut=    40.42 Ry     beta=0.07
     Davidson diagonalization with overlap
     ethr =  6.44E-07,  avg # of iterations =  3.0

     negative rho (up, down):  3.193E-03 0.000E+00

     total cpu time spent up to now is    22636.9 secs

     total energy              =   -9128.89552571 Ry
     Harris-Foulkes estimate   =   -9128.89554247 Ry
     estimated scf accuracy    <       0.00217872 Ry

     iteration #  9     ecut=    40.42 Ry     beta=0.07
     Davidson diagonalization with overlap
     ethr =  3.16E-07,  avg # of iterations =  1.0

     negative rho (up, down):  2.480E-03 0.000E+00

     total cpu time spent up to now is    23008.0 secs

     total energy              =   -9128.89531888 Ry
     Harris-Foulkes estimate   =   -9128.89553030 Ry
     estimated scf accuracy    <       0.00199438 Ry

     iteration # 10     ecut=    40.42 Ry     beta=0.07
     Davidson diagonalization with overlap
     ethr =  2.89E-07,  avg # of iterations =  3.0

     negative rho (up, down):  2.150E-03 0.000E+00

     total cpu time spent up to now is    23438.6 secs

     total energy              =   -9128.89543427 Ry
     Harris-Foulkes estimate   =   -9128.89544526 Ry
     estimated scf accuracy    <       0.00114761 Ry

     iteration # 11     ecut=    40.42 Ry     beta=0.07
     Davidson diagonalization with overlap
     ethr =  1.66E-07,  avg # of iterations =  2.0

     negative rho (up, down):  1.996E-03 0.000E+00

     total cpu time spent up to now is    23829.5 secs

     total energy              =   -9128.89542548 Ry
     Harris-Foulkes estimate   =   -9128.89544531 Ry
     estimated scf accuracy    <       0.00095168 Ry

     iteration # 12     ecut=    40.42 Ry     beta=0.07
     Davidson diagonalization with overlap
     ethr =  1.38E-07,  avg # of iterations =  3.0

     negative rho (up, down):  2.904E-03 0.000E+00

     total cpu time spent up to now is    24245.6 secs

     total energy              =   -9128.89543282 Ry
     Harris-Foulkes estimate   =   -9128.89547056 Ry
     estimated scf accuracy    <       0.00054580 Ry

     iteration # 13     ecut=    40.42 Ry     beta=0.07
     Davidson diagonalization with overlap
     ethr =  7.91E-08,  avg # of iterations =  3.0

     negative rho (up, down):  3.164E-03 0.000E+00

     total cpu time spent up to now is    24670.2 secs

     total energy              =   -9128.89544350 Ry
     Harris-Foulkes estimate   =   -9128.89546682 Ry
     estimated scf accuracy    <       0.00043214 Ry

     iteration # 14     ecut=    40.42 Ry     beta=0.07
     Davidson diagonalization with overlap
     ethr =  6.26E-08,  avg # of iterations =  3.0

     negative rho (up, down):  5.061E-03 0.000E+00

     total cpu time spent up to now is    25092.8 secs

     total energy              =   -9128.89546198 Ry
     Harris-Foulkes estimate   =   -9128.89546125 Ry
     estimated scf accuracy    <       0.00016545 Ry

     iteration # 15     ecut=    40.42 Ry     beta=0.07
     Davidson diagonalization with overlap
     ethr =  2.40E-08,  avg # of iterations =  3.0

     negative rho (up, down):  4.820E-03 0.000E+00

     total cpu time spent up to now is    25511.8 secs

     total energy              =   -9128.89547771 Ry
     Harris-Foulkes estimate   =   -9128.89547333 Ry
     estimated scf accuracy    <       0.00008056 Ry

     iteration # 16     ecut=    40.42 Ry     beta=0.07
     Davidson diagonalization with overlap
     ethr =  1.17E-08,  avg # of iterations =  2.0

     negative rho (up, down):  4.107E-03 0.000E+00

     total cpu time spent up to now is    25901.1 secs

     total energy              =   -9128.89548328 Ry
     Harris-Foulkes estimate   =   -9128.89547950 Ry
     estimated scf accuracy    <       0.00005060 Ry

     iteration # 17     ecut=    40.42 Ry     beta=0.07
     Davidson diagonalization with overlap
     ethr =  7.33E-09,  avg # of iterations =  3.0

     negative rho (up, down):  3.848E-03 0.000E+00

     total cpu time spent up to now is    26320.3 secs

     total energy              =   -9128.89549333 Ry
     Harris-Foulkes estimate   =   -9128.89548761 Ry
     estimated scf accuracy    <       0.00002118 Ry

     iteration # 18     ecut=    40.42 Ry     beta=0.07
     Davidson diagonalization with overlap
     ethr =  3.07E-09,  avg # of iterations =  2.0

     negative rho (up, down):  3.798E-03 0.000E+00

     total cpu time spent up to now is    26718.3 secs

     total energy              =   -9128.89549605 Ry
     Harris-Foulkes estimate   =   -9128.89549352 Ry
     estimated scf accuracy    <       0.00001883 Ry

     iteration # 19     ecut=    40.42 Ry     beta=0.07
     Davidson diagonalization with overlap
     ethr =  2.73E-09,  avg # of iterations =  3.0

     negative rho (up, down):  3.870E-03 0.000E+00

     total cpu time spent up to now is    27141.2 secs

     total energy              =   -9128.89550215 Ry
     Harris-Foulkes estimate   =   -9128.89549776 Ry
     estimated scf accuracy    <       0.00000775 Ry

     iteration # 20     ecut=    40.42 Ry     beta=0.07
     Davidson diagonalization with overlap
     ethr =  1.12E-09,  avg # of iterations =  3.0

     negative rho (up, down):  3.890E-03 0.000E+00

     total cpu time spent up to now is    27542.6 secs

     total energy              =   -9128.89550755 Ry
     Harris-Foulkes estimate   =   -9128.89550242 Ry
     estimated scf accuracy    <       0.00000620 Ry

     iteration # 21     ecut=    40.42 Ry     beta=0.07
     Davidson diagonalization with overlap
     ethr =  8.99E-10,  avg # of iterations =  2.2

     negative rho (up, down):  3.921E-03 0.000E+00

     total cpu time spent up to now is    27942.9 secs

     total energy              =   -9128.89551130 Ry
     Harris-Foulkes estimate   =   -9128.89550781 Ry
     estimated scf accuracy    <       0.00000465 Ry

     iteration # 22     ecut=    40.42 Ry     beta=0.07
     Davidson diagonalization with overlap
     ethr =  6.75E-10,  avg # of iterations =  2.4

     negative rho (up, down):  4.180E-03 0.000E+00

     total cpu time spent up to now is    28346.2 secs

     total energy              =   -9128.89551434 Ry
     Harris-Foulkes estimate   =   -9128.89551138 Ry
     estimated scf accuracy    <       0.00000346 Ry

     iteration # 23     ecut=    40.42 Ry     beta=0.07
     Davidson diagonalization with overlap
     ethr =  5.01E-10,  avg # of iterations =  3.0

     negative rho (up, down):  4.283E-03 0.000E+00

     total cpu time spent up to now is    28772.7 secs

     total energy              =   -9128.89551686 Ry
     Harris-Foulkes estimate   =   -9128.89551462 Ry
     estimated scf accuracy    <       0.00000202 Ry

     iteration # 24     ecut=    40.42 Ry     beta=0.07
     Davidson diagonalization with overlap
     ethr =  2.92E-10,  avg # of iterations =  3.0

     negative rho (up, down):  4.267E-03 0.000E+00

     total cpu time spent up to now is    29180.1 secs

     total energy              =   -9128.89551882 Ry
     Harris-Foulkes estimate   =   -9128.89551693 Ry
     estimated scf accuracy    <       0.00000136 Ry

     iteration # 25     ecut=    40.42 Ry     beta=0.07
[...]
   -57.6055 -57.5983 -57.5895 -57.5857 -57.5827 -57.5785 -57.5738 -57.5731
   -57.5717 -57.5690 -57.5660 -57.5645 -57.5616 -57.5598 -57.5576 -57.5539
   -57.5513 -57.5495 -57.5481 -57.5430 -57.5366 -57.5357 -57.5355 -57.5342
   -57.5250 -57.5239 -57.5056 -57.5032 -57.5020 -57.4983 -57.4943 -57.4918
   -57.4847 -57.4838 -57.4825 -57.4815 -57.4743 -57.4727 -57.4713 -57.4704
   -57.4689 -57.4664 -57.4656 -57.4635 -57.4606 -57.4585 -57.4575 -57.4544
   -57.4507 -57.4495 -57.4491 -57.4483 -57.4465 -57.4455 -57.4447 -57.4440
   -57.4420 -57.4416 -57.4353 -57.4301 -57.4290 -57.4285 -57.4272 -57.4242
   -57.4176 -57.4146 -57.4107 -57.4101 -57.3959 -57.3917 -57.3888 -57.3827
   -57.3807 -57.3762 -57.3739 -57.3699 -57.3631 -57.3591 -57.3561 -57.3523
   -57.3419 -57.3406 -57.3381 -57.3349 -57.3302 -57.3280 -57.3239 -57.3232
   -57.3229 -57.3220 -57.3186 -57.3181 -57.3148 -57.3126 -57.3121 -57.3096
   -24.0173 -23.4741 -22.1441 -21.8119 -21.5625 -21.3315 -21.0906 -20.8181
   -15.4346 -14.4540 -12.8836 -11.7475 -11.0957 -10.1017  -9.3995  -8.8515
    -8.7723  -8.7617  -8.6781  -8.4271  -8.2583  -7.9530  -7.9511  -7.8361
    -7.6476  -7.3424  -7.3301  -7.2347  -7.1665  -7.1629  -7.1126  -7.0128
    -7.0071  -7.0065  -7.0053  -6.8508  -6.8430  -6.8165  -6.8149  -6.8106
    -6.8085  -6.7123  -6.6873  -6.6679  -6.6612  -6.6604  -6.6294  -6.6070
    -6.6007  -6.3351  -6.3328  -6.3308  -6.3294  -6.3266  -6.3209  -6.3107
    -6.3103  -6.2773  -6.2658  -6.2357  -6.2326  -6.1768  -6.0816  -6.0785
    -5.9994  -5.9984  -5.9972  -5.9950  -5.9836  -5.9808  -5.7984  -5.6000
    -5.5990  -5.5450  -5.4553  -5.4528  -5.3875  -5.2922  -5.2892  -5.2552
    -5.2510  -5.2416  -5.2406  -5.2401  -5.2274  -5.1910  -5.1853  -5.1462
    -5.1443  -5.1416  -5.1375  -5.1343  -5.1333  -5.0809  -5.0792  -5.0163
    -5.0090  -4.9846  -4.9836  -4.9795  -4.9714  -4.9696  -4.9691  -4.7515
    -4.7424  -4.7399  -4.7384  -4.7369  -4.7318  -4.6994  -4.6955  -4.6922
    -4.6845  -4.6682  -4.6452  -4.6356  -4.5969  -4.5930  -4.4543  -4.4525
    -4.3988  -4.3855  -4.3714  -4.3658  -4.3240  -4.3145  -4.3122  -4.3112
    -4.2916  -4.2797  -4.2619  -4.2301  -4.1150  -4.1091  -4.0567  -4.0057
    -4.0028  -3.9629  -3.9549  -3.9513  -3.9475  -3.9443  -3.9191  -3.7849
    -3.7764  -3.7476  -3.6721  -3.6679  -3.6595  -3.6554  -3.6488  -3.6486
    -3.5944  -3.5407  -3.5374  -3.5361  -3.5278  -3.5254  -3.5242  -3.5190
    -3.4878  -3.3864  -3.3788  -3.3452  -3.3415  -3.2408  -3.2363  -3.2346
    -3.2320  -3.1894  -3.1852  -3.1793  -3.1734  -3.1134  -3.1103  -3.1010
    -3.0908  -3.0820  -3.0762  -3.0755  -3.0616  -3.0486  -2.9683  -2.9600
    -2.9134  -2.9062  -2.8903  -2.8792  -2.8761  -2.8752  -2.8478  -2.8403
    -2.8275  -2.8142  -2.8112  -2.7489  -2.7402  -2.7267  -2.7181  -2.6357
    -2.6279  -2.6146  -2.6130  -2.5915  -2.5582  -2.5053  -2.4727  -2.4719
    -2.4704  -2.4671  -2.4112  -2.0453  -1.9312  -1.9042  -1.6893  -0.7416
    -0.7337  -0.7218  -0.6954  -0.4210  -0.4153  -0.4038  -0.4026  -0.2990
    -0.2787   0.7191   0.7604

          k =-0.0433-0.0250 0.0000 (100004 PWs)   bands (ev):

  -106.2127-106.2005-106.1963-106.1633-106.1620-106.1591-106.1582-106.1572
  -106.1558-106.1552-106.1549-106.1535-106.1529-106.1521-106.1517-106.1509
  -106.1504-106.1499-106.1496-106.1494-106.1488-106.1487-106.1480-106.1474
  -106.1466-106.1464-106.1456-106.1449-106.1445-106.1435-106.1419-106.1413
   -57.6004 -57.5966 -57.5943 -57.5888 -57.5846 -57.5819 -57.5728 -57.5723
   -57.5710 -57.5704 -57.5678 -57.5648 -57.5619 -57.5593 -57.5560 -57.5517
   -57.5503 -57.5473 -57.5431 -57.5424 -57.5369 -57.5358 -57.5338 -57.5333
   -57.5305 -57.5238 -57.5069 -57.5059 -57.5002 -57.4943 -57.4926 -57.4901
   -57.4892 -57.4872 -57.4829 -57.4824 -57.4762 -57.4753 -57.4705 -57.4687
   -57.4680 -57.4666 -57.4648 -57.4632 -57.4625 -57.4610 -57.4556 -57.4548
   -57.4502 -57.4495 -57.4482 -57.4471 -57.4458 -57.4444 -57.4440 -57.4422
   -57.4419 -57.4408 -57.4340 -57.4326 -57.4304 -57.4292 -57.4266 -57.4241
   -57.4157 -57.4151 -57.4140 -57.4055 -57.3991 -57.3949 -57.3855 -57.3837
   -57.3809 -57.3769 -57.3694 -57.3673 -57.3658 -57.3631 -57.3563 -57.3513
   -57.3413 -57.3397 -57.3381 -57.3347 -57.3309 -57.3278 -57.3268 -57.3233
   -57.3223 -57.3197 -57.3189 -57.3168 -57.3156 -57.3143 -57.3110 -57.3096
   -24.0173 -23.4741 -22.1441 -21.8118 -21.5625 -21.3315 -21.0906 -20.8182
   -15.4346 -14.4540 -12.8836 -11.7476 -11.0956 -10.1016  -9.3997  -8.8520
    -8.7759  -8.7577  -8.6773  -8.4283  -8.2590  -7.9548  -7.9483  -7.8359
    -7.6472  -7.3381  -7.3332  -7.2332  -7.1682  -7.1653  -7.1121  -7.0122
    -7.0095  -7.0050  -7.0043  -6.8486  -6.8469  -6.8143  -6.8125  -6.8111
    -6.8096  -6.7096  -6.6816  -6.6650  -6.6644  -6.6635  -6.6340  -6.6057
    -6.6038  -6.3362  -6.3343  -6.3301  -6.3281  -6.3225  -6.3171  -6.3162
    -6.3142  -6.2741  -6.2695  -6.2354  -6.2311  -6.1767  -6.0818  -6.0772
    -6.0013  -5.9994  -5.9973  -5.9924  -5.9854  -5.9808  -5.7978  -5.6009
    -5.5996  -5.5441  -5.4556  -5.4493  -5.3900  -5.2919  -5.2890  -5.2498
    -5.2469  -5.2459  -5.2447  -5.2359  -5.2329  -5.1894  -5.1868  -5.1450
    -5.1441  -5.1383  -5.1375  -5.1361  -5.1351  -5.0796  -5.0776  -5.0142
    -5.0109  -4.9843  -4.9799  -4.9778  -4.9773  -4.9719  -4.9676  -4.7456
    -4.7425  -4.7393  -4.7385  -4.7358  -4.7352  -4.7018  -4.6932  -4.6917
    -4.6899  -4.6682  -4.6417  -4.6395  -4.5981  -4.5935  -4.4550  -4.4526
    -4.3938  -4.3903  -4.3724  -4.3662  -4.3223  -4.3176  -4.3124  -4.3101
    -4.2929  -4.2785  -4.2644  -4.2204  -4.1205  -4.1089  -4.0521  -4.0061
    -4.0018  -3.9566  -3.9540  -3.9532  -3.9518  -3.9480  -3.9212  -3.7854
    -3.7691  -3.7493  -3.6672  -3.6632  -3.6537  -3.6531  -3.6522  -3.6427
    -3.6107  -3.5446  -3.5436  -3.5352  -3.5315  -3.5253  -3.5240  -3.5114
    -3.4947  -3.3872  -3.3759  -3.3475  -3.3422  -3.2418  -3.2373  -3.2323
    -3.2320  -3.1832  -3.1830  -3.1816  -3.1772  -3.1176  -3.1043  -3.1031
    -3.0889  -3.0832  -3.0797  -3.0689  -3.0642  -3.0489  -2.9694  -2.9582
    -2.9171  -2.9038  -2.8865  -2.8832  -2.8761  -2.8743  -2.8570  -2.8345
    -2.8320  -2.8126  -2.8100  -2.7455  -2.7432  -2.7236  -2.7219  -2.6284
    -2.6226  -2.6175  -2.6133  -2.5985  -2.5750  -2.4831  -2.4735  -2.4714
    -2.4698  -2.4658  -2.4095  -2.0408  -1.9326  -1.9126  -1.6905  -0.7671
    -0.7172  -0.7132  -0.6955  -0.4126  -0.4107  -0.4093  -0.4082  -0.2990
    -0.2792   0.7218   0.7595

          k =-0.0217 0.0375 0.0000 (100080 PWs)   bands (ev):

  -106.2127-106.2005-106.1963-106.1633-106.1619-106.1591-106.1582-106.1573
  -106.1558-106.1553-106.1547-106.1534-106.1527-106.1523-106.1519-106.1507
  -106.1504-106.1501-106.1497-106.1493-106.1489-106.1486-106.1479-106.1474
  -106.1467-106.1464-106.1456-106.1449-106.1445-106.1435-106.1419-106.1412
   -57.6040 -57.5965 -57.5920 -57.5895 -57.5814 -57.5774 -57.5749 -57.5715
   -57.5705 -57.5697 -57.5667 -57.5643 -57.5622 -57.5597 -57.5572 -57.5565
   -57.5544 -57.5489 -57.5469 -57.5447 -57.5395 -57.5357 -57.5318 -57.5248
   -57.5195 -57.5172 -57.5109 -57.5098 -57.5073 -57.5055 -57.4947 -57.4882
   -57.4866 -57.4838 -57.4809 -57.4798 -57.4740 -57.4729 -57.4718 -57.4681
   -57.4669 -57.4659 -57.4648 -57.4620 -57.4597 -57.4587 -57.4566 -57.4558
   -57.4543 -57.4523 -57.4511 -57.4483 -57.4475 -57.4437 -57.4433 -57.4412
   -57.4402 -57.4377 -57.4371 -57.4360 -57.4316 -57.4293 -57.4235 -57.4197
   -57.4192 -57.4151 -57.4126 -57.4079 -57.3973 -57.3939 -57.3863 -57.3840
   -57.3797 -57.3759 -57.3727 -57.3694 -57.3648 -57.3601 -57.3566 -57.3505
   -57.3426 -57.3403 -57.3382 -57.3342 -57.3308 -57.3278 -57.3253 -57.3240
   -57.3218 -57.3207 -57.3194 -57.3172 -57.3148 -57.3138 -57.3114 -57.3096
   -24.0173 -23.4741 -22.1441 -21.8119 -21.5625 -21.3315 -21.0906 -20.8182
   -15.4346 -14.4540 -12.8836 -11.7476 -11.0957 -10.1016  -9.3998  -8.8999
    -8.8242  -8.6788  -8.4546  -8.4466  -8.4205  -8.2560  -7.8379  -7.6481
    -7.4385  -7.4053  -7.4034  -7.2339  -7.1361  -7.1312  -7.1088  -7.0582
    -7.0567  -7.0415  -7.0377  -6.9302  -6.8571  -6.8519  -6.8389  -6.8369
    -6.7843  -6.7463  -6.7087  -6.6788  -6.6733  -6.6430  -6.5146  -6.5102
    -6.4849  -6.4832  -6.3798  -6.3780  -6.3604  -6.3349  -6.3318  -6.2668
    -6.2636  -6.2115  -6.2060  -6.1939  -6.1898  -6.1824  -6.1509  -6.1437
    -6.1362  -6.0008  -5.9129  -5.9097  -5.8933  -5.8029  -5.7800  -5.7743
    -5.5464  -5.4976  -5.4931  -5.4492  -5.4148  -5.4133  -5.3845  -5.2988
    -5.2955  -5.2709  -5.2696  -5.2666  -5.2600  -5.1872  -5.1831  -5.1683
    -5.1664  -5.1566  -5.1537  -5.1521  -5.1243  -5.1220  -5.0880  -5.0823
    -5.0620  -5.0597  -5.0157  -4.9335  -4.9219  -4.9210  -4.8722  -4.7981
    -4.7845  -4.7799  -4.7171  -4.6968  -4.6815  -4.6686  -4.6604  -4.6547
    -4.6151  -4.5307  -4.5297  -4.4979  -4.4948  -4.4750  -4.4714  -4.4482
    -4.4475  -4.4142  -4.3865  -4.3860  -4.3193  -4.3078  -4.2978  -4.2971
    -4.2770  -4.2740  -4.2569  -4.2032  -4.1363  -4.1330  -4.0613  -4.0100
    -4.0037  -4.0010  -3.9974  -3.9849  -3.8983  -3.8924  -3.8746  -3.8600
    -3.8086  -3.7950  -3.7896  -3.7532  -3.6797  -3.6154  -3.6036  -3.5926
    -3.5715  -3.5391  -3.5348  -3.5275  -3.4894  -3.4841  -3.4774  -3.4717
    -3.4509  -3.4073  -3.4054  -3.3994  -3.3888  -3.3723  -3.3695  -3.3109
    -3.2052  -3.1950  -3.1808  -3.1742  -3.1650  -3.1629  -3.1325  -3.1317
    -3.1162  -3.0959  -3.0890  -3.0814  -3.0574  -3.0460  -2.9840  -2.9792
    -2.9658  -2.9613  -2.9337  -2.9121  -2.8973  -2.8934  -2.8882  -2.8475
    -2.8192  -2.8169  -2.7788  -2.7698  -2.7653  -2.7296  -2.6845  -2.6810
    -2.6404  -2.6100  -2.6059  -2.5873  -2.5852  -2.5075  -2.4617  -2.4317
    -2.3067  -2.2567  -2.0179  -1.6950  -1.6763  -1.6746  -1.5850  -1.5826
    -1.4602  -1.4221  -0.7455  -0.6251  -0.6103   0.3016   0.3191   0.4289
     0.4629   0.5364   0.8459

          k = 0.0433 0.0000 0.0000 (100080 PWs)   bands (ev):

  -106.2127-106.2005-106.1963-106.1633-106.1620-106.1590-106.1583-106.1573
  -106.1558-106.1551-106.1549-106.1536-106.1528-106.1523-106.1516-106.1508
  -106.1504-106.1500-106.1498-106.1493-106.1489-106.1485-106.1480-106.1474
  -106.1467-106.1464-106.1456-106.1449-106.1445-106.1435-106.1419-106.1412
   -57.6040 -57.5965 -57.5929 -57.5880 -57.5818 -57.5775 -57.5748 -57.5718
   -57.5705 -57.5694 -57.5668 -57.5644 -57.5621 -57.5596 -57.5573 -57.5563
   -57.5546 -57.5491 -57.5470 -57.5444 -57.5392 -57.5355 -57.5317 -57.5256
   -57.5187 -57.5175 -57.5110 -57.5098 -57.5069 -57.5055 -57.4949 -57.4889
   -57.4866 -57.4839 -57.4803 -57.4799 -57.4742 -57.4726 -57.4710 -57.4686
   -57.4672 -57.4659 -57.4649 -57.4618 -57.4599 -57.4588 -57.4572 -57.4554
   -57.4541 -57.4517 -57.4513 -57.4482 -57.4473 -57.4441 -57.4433 -57.4413
   -57.4405 -57.4380 -57.4370 -57.4356 -57.4315 -57.4289 -57.4237 -57.4197
   -57.4195 -57.4152 -57.4126 -57.4077 -57.3965 -57.3946 -57.3861 -57.3841
   -57.3811 -57.3753 -57.3719 -57.3693 -57.3650 -57.3597 -57.3571 -57.3511
   -57.3414 -57.3407 -57.3382 -57.3346 -57.3308 -57.3276 -57.3257 -57.3233
   -57.3223 -57.3206 -57.3192 -57.3174 -57.3148 -57.3138 -57.3113 -57.3096
   -24.0173 -23.4741 -22.1441 -21.8119 -21.5625 -21.3315 -21.0906 -20.8182
   -15.4346 -14.4540 -12.8836 -11.7476 -11.0956 -10.1016  -9.3997  -8.9018
    -8.8215  -8.6796  -8.4549  -8.4471  -8.4202  -8.2560  -7.8375  -7.6476
    -7.4384  -7.4085  -7.4020  -7.2328  -7.1334  -7.1319  -7.1098  -7.0579
    -7.0572  -7.0415  -7.0381  -6.9314  -6.8562  -6.8520  -6.8390  -6.8372
    -6.7849  -6.7450  -6.7084  -6.6803  -6.6736  -6.6412  -6.5147  -6.5107
    -6.4841  -6.4835  -6.3810  -6.3776  -6.3613  -6.3329  -6.3321  -6.2678
    -6.2628  -6.2132  -6.2060  -6.2039  -6.1893  -6.1598  -6.1521  -6.1488
    -6.1422  -6.0010  -5.9129  -5.9096  -5.8934  -5.8054  -5.7796  -5.7723
    -5.5454  -5.4976  -5.4925  -5.4507  -5.4141  -5.4132  -5.3865  -5.2987
    -5.2952  -5.2714  -5.2700  -5.2656  -5.2599  -5.1851  -5.1827  -5.1690
    -5.1675  -5.1574  -5.1543  -5.1518  -5.1235  -5.1218  -5.0882  -5.0823
    -5.0612  -5.0604  -5.0152  -4.9343  -4.9218  -4.9208  -4.8722  -4.7981
    -4.7836  -4.7797  -4.7175  -4.6962  -4.6805  -4.6702  -4.6606  -4.6550
    -4.6154  -4.5310  -4.5291  -4.4977  -4.4947  -4.4742  -4.4722  -4.4482
    -4.4477  -4.4137  -4.3870  -4.3845  -4.3227  -4.3066  -4.2983  -4.2969
    -4.2779  -4.2707  -4.2550  -4.2066  -4.1375  -4.1327  -4.0602  -4.0110
    -4.0033  -4.0015  -3.9961  -3.9845  -3.8991  -3.8922  -3.8752  -3.8645
    -3.8075  -3.7943  -3.7860  -3.7539  -3.6802  -3.6108  -3.6033  -3.5864
    -3.5808  -3.5387  -3.5322  -3.5308  -3.4890  -3.4843  -3.4803  -3.4700
    -3.4537  -3.4063  -3.4026  -3.4016  -3.3857  -3.3726  -3.3705  -3.3112
    -3.2052  -3.1950  -3.1785  -3.1744  -3.1651  -3.1632  -3.1324  -3.1313
    -3.1151  -3.0962  -3.0880  -3.0860  -3.0575  -3.0476  -2.9849  -2.9774
    -2.9664  -2.9611  -2.9335  -2.9113  -2.8967  -2.8934  -2.8916  -2.8468
    -2.8180  -2.8156  -2.7776  -2.7702  -2.7660  -2.7286  -2.6842  -2.6797
    -2.6463  -2.6087  -2.6070  -2.5875  -2.5854  -2.5102  -2.4542  -2.4304
    -2.3065  -2.2586  -2.0175  -1.6956  -1.6760  -1.6748  -1.5851  -1.5827
    -1.4434  -1.4410  -0.7456  -0.6249  -0.6099   0.2980   0.3238   0.4358
     0.4500   0.5416   0.8462

     the Fermi energy is    -1.1086 ev

!    total energy              =   -9129.57676587 Ry
     Harris-Foulkes estimate   =   -9129.57676447 Ry
     estimated scf accuracy    <       0.00000033 Ry

     The total energy is the sum of the following terms:

     one-electron contribution =  -83172.07808680 Ry
     hartree contribution      =   41426.38867489 Ry
     xc contribution           =    -897.71987135 Ry
     ewald contribution        =   33513.84664387 Ry
     smearing contrib. (-TS)   =      -0.01412648 Ry

     convergence has been achieved in  15 iterations

     Forces acting on atoms (Ry/au):


     negative rho (up, down):  5.017E-03 0.000E+00
     atom    1 type  1   force =    -0.00010467   -0.00014294   -0.02437345
     atom    2 type  1   force =    -0.00030698   -0.00022146    0.02390183
     atom    3 type  1   force =    -0.00003967   -0.00000368   -0.02366338
     atom    4 type  1   force =    -0.00012931    0.00008006    0.02380446
     atom    5 type  1   force =    -0.00012687   -0.00007005   -0.02395330
     atom    6 type  1   force =     0.00001255   -0.00003192    0.02381687
     atom    7 type  1   force =     0.00001287    0.00003475   -0.02455597
     atom    8 type  1   force =     0.00006717   -0.00001893    0.02423632
     atom    9 type  1   force =     0.00011014    0.00000971   -0.02459263
     atom   10 type  1   force =     0.00047826   -0.00053916    0.02397877
     atom   11 type  1   force =    -0.00003876    0.00010367   -0.02400789
     atom   12 type  1   force =    -0.00047003    0.00014510    0.02288419
     atom   13 type  1   force =     0.00008353    0.00002789   -0.02420613
     atom   14 type  1   force =    -0.00087998   -0.00025211    0.02314765
     atom   15 type  1   force =     0.00005965   -0.00000196   -0.02375060
     atom   16 type  1   force =     0.00001237   -0.00001705    0.02395738
     atom   17 type  1   force =    -0.00006039    0.00006668   -0.02448798
     atom   18 type  1   force =     0.00007397   -0.00002159    0.02384679
     atom   19 type  1   force =     0.00003261   -0.00010506   -0.02445944
     atom   20 type  1   force =     0.00048892   -0.00080846    0.02331196
     atom   21 type  1   force =    -0.00003004    0.00001953   -0.02335817
     atom   22 type  1   force =    -0.00123364   -0.00181086    0.01489679
     atom   23 type  1   force =    -0.00006389   -0.00003742   -0.02344386
     atom   24 type  1   force =    -0.00049098    0.00072653    0.02421864
     atom   25 type  1   force =     0.00007641   -0.00002525   -0.02343209
     atom   26 type  1   force =     0.00007911    0.00020573    0.02387206
     atom   27 type  1   force =     0.00004847    0.00004804   -0.02400846
     atom   28 type  1   force =    -0.00004792    0.00004061    0.02383686
     atom   29 type  1   force =     0.00008310   -0.00004891   -0.02363825
     atom   30 type  1   force =     0.00116692    0.00004645    0.02342501
     atom   31 type  1   force =    -0.00000466    0.00008125   -0.02385874
     atom   32 type  1   force =     0.00038339    0.00045384    0.02425325
     atom   33 type  2   force =    -0.00525121    0.00267404    0.00338547
     atom   34 type  2   force =    -0.00523479   -0.00282151    0.00178858
     atom   35 type  2   force =     0.00060951    0.00498957    0.00148029
     atom   36 type  2   force =    -0.00084395   -0.00410924    0.00053039
     atom   37 type  2   force =     0.00404230   -0.00173680   -0.00576452
     atom   38 type  2   force =     0.00520058    0.01148787   -0.00286109
     atom   39 type  2   force =    -0.00442507   -0.00277404    0.00289992
     atom   40 type  2   force =    -0.00514921   -0.00386334    0.00313162
     atom   41 type  3   force =     0.00360983    0.00559369   -0.00056189
     atom   42 type  3   force =    -0.00757531    0.00027902   -0.00681205
     atom   43 type  3   force =    -0.00623005    0.00327736   -0.00113838
     atom   44 type  3   force =    -0.00401204    0.00608091    0.00050009
     atom   45 type  3   force =     0.00340311   -0.00009261    0.00065145
     atom   46 type  3   force =     0.00303053   -0.00059076    0.00362561
     atom   47 type  4   force =     0.00363720   -0.00738023    0.00249341
     atom   48 type  4   force =     0.00413848    0.00126064   -0.00339150
     atom   49 type  4   force =     0.00349001   -0.00349836   -0.00074235
     atom   50 type  4   force =     0.00237430   -0.00011982    0.00424486
     atom   51 type  4   force =     0.00269803   -0.00257095    0.00179200
     atom   52 type  4   force =     0.00062673    0.00037794    0.00171689
     atom   53 type  4   force =     0.00008166   -0.00429040    0.00052223
     atom   54 type  4   force =     0.00477673    0.00099372   -0.00030628
     atom   55 type  4   force =    -0.00312927    0.00721360    0.00416202
     atom   56 type  4   force =     0.00089025   -0.00831337    0.00105478

     Total force =     0.137861     Total SCF correction =     0.002102
 !ASE

     Writing output data file calc.save
     Check: negative starting charge=   -0.002248
     NEW-OLD atomic charge density approx. for the potential
     Check: negative starting charge=   -0.002241

     negative rho (up, down):  5.339E-03 0.000E+00

     total cpu time spent up to now is    85180.8 secs

     per-process dynamical memory:   877.0 Mb

     Self-consistent Calculation

     iteration #  1     ecut=    40.42 Ry     beta=0.15
     Davidson diagonalization with overlap
     ethr =  8.93E-11,  avg # of iterations =  9.0

     negative rho (up, down):  5.036E-03 0.000E+00

     total cpu time spent up to now is    85915.9 secs

     total energy              =   -9129.57775263 Ry
     Harris-Foulkes estimate   =   -9129.57860509 Ry
     estimated scf accuracy    <       0.01630654 Ry

     iteration #  2     ecut=    40.42 Ry     beta=0.15
     Davidson diagonalization with overlap
     ethr =  2.36E-06,  avg # of iterations =  1.0

     negative rho (up, down):  8.990E-03 0.000E+00

     total cpu time spent up to now is    86154.4 secs

     total energy              =   -9129.57353870 Ry
     Harris-Foulkes estimate   =   -9129.57778439 Ry
     estimated scf accuracy    <       0.01251506 Ry

     iteration #  3     ecut=    40.42 Ry     beta=0.15
     Davidson diagonalization with overlap
     ethr =  1.81E-06,  avg # of iterations =  3.0

     negative rho (up, down):  7.600E-03 0.000E+00

     total cpu time spent up to now is    86426.1 secs

     total energy              =   -9129.57514238 Ry
     Harris-Foulkes estimate   =   -9129.57517110 Ry
     estimated scf accuracy    <       0.00062543 Ry

     iteration #  4     ecut=    40.42 Ry     beta=0.15
     Davidson diagonalization with overlap
