  python dir          : /gpfs/pace1/project/chbe-medford/medford-share/gits/frozen/ben_espresso_8_24_2017/espresso
  espresso dir        : /nv/hp22/amedford6/medford-shared/builds/espresso/5.1.r11289-pybeef/intel-16.0+mvapich2-2.2+mkl-11.3/espresso-5.1.r11289-pybeef/bin
  pseudo dir          : /gpfs/pace1/project/chbe-medford/medford-share/data/pseudos/SSSP_eff_PBE
  ase-espresso py git : GITVERSION



     Program PWSCF v.5.1rc2 starts on  6Apr2019 at 22:23:36 

     This program is part of the open-source Quantum ESPRESSO suite
     for quantum simulation of materials; please cite
         "P. Giannozzi et al., J. Phys.:Condens. Matter 21 395502 (2009);
          URL http://www.quantum-espresso.org", 
     in publications or presentations arising from this work. More details at
     http://www.quantum-espresso.org/quote

     Parallel version (MPI), running on    12 processors
     R & G space division:  proc/nbgrp/npool/nimage =      12
     Reading input from pw.inp
     Message from routine read_cards :
     DEPRECATED: no units specified in CELL_PARAMETERS card

     Current dimensions of program PWSCF are:
     Max number of different atomic species (ntypx) = 10
     Max number of k-points (npk) =  40000
     Max angular momentum in pseudopotentials (lmaxx) =  3

     IMPORTANT: XC functional enforced from input :
     Exchange-correlation      = PBE ( 1  4  3  4 0)
     Any further DFT definition will be discarded
     Please, verify this is what you really want


     Subspace diagonalization in iterative solution of the eigenvalue problem:
     a serial algorithm will be used

 
     Parallelization info
     --------------------
     sticks:   dense  smooth     PW     G-vecs:    dense   smooth      PW
     Min         706     346     91               151854    51870    7071
     Max         707     347     92               151869    51929    7082
     Sum        8479    4153   1099              1822335   622653   84925
 


     bravais-lattice index     =            0
     lattice parameter (alat)  =       1.8897  a.u.
     unit-cell volume          =   17941.7315 (a.u.)^3
     number of atoms/cell      =           56
     number of atomic types    =            4
     number of electrons       =       690.00
     number of Kohn-Sham states=          355
     kinetic-energy cutoff     =      40.4243  Ry
     charge density cutoff     =     330.7439  Ry
     convergence threshold     =      3.7E-07
     mixing beta               =       0.0750
     number of iterations used =            8  local-TF  mixing
     Exchange-correlation      = PBE ( 1  4  3  4 0)
     nstep                     =           50


     celldm(1)=   1.889726  celldm(2)=   0.000000  celldm(3)=   0.000000
     celldm(4)=   0.000000  celldm(5)=   0.000000  celldm(6)=   0.000000

     crystal axes: (cart. coord. in units of alat)
               a(1) = (  10.224481   0.000000   0.000000 )  
               a(2) = (  -5.112241   8.854660   0.000000 )  
               a(3) = (   0.000000   0.000000  29.366660 )  

     reciprocal axes: (cart. coord. in units 2 pi/alat)
               b(1) = (  0.097804  0.056467  0.000000 )  
               b(2) = (  0.000000  0.112935  0.000000 )  
               b(3) = (  0.000000  0.000000  0.034052 )  


     PseudoPot. # 1 for Cu read from file:
     /gpfs/pace1/project/chbe-medford/medford-share/data/pseudos/SSSP_eff_PBE/Cu.UPF
     MD5 check sum: 6e991ff952a84172a2a52a1c1e996048
     Pseudo is Ultrasoft + core correction, Zval = 19.0
     Generated by new atomic code, or converted to UPF format
     Using radial grid of  867 points,  6 beta functions with: 
                l(1) =   0
                l(2) =   0
                l(3) =   1
                l(4) =   1
                l(5) =   2
                l(6) =   2
     Q(r) pseudized with  8 coefficients,  rinner =    1.150   1.150   1.150
                                                       1.150   1.150

     PseudoPot. # 2 for O  read from file:
     /gpfs/pace1/project/chbe-medford/medford-share/data/pseudos/SSSP_eff_PBE/O.UPF
     MD5 check sum: 734c27235a0248c51dbae37a1fbe46ec
     Pseudo is Ultrasoft + core correction, Zval =  6.0
     Generated by new atomic code, or converted to UPF format
     Using radial grid of  737 points,  5 beta functions with: 
                l(1) =   0
                l(2) =   0
                l(3) =   1
                l(4) =   1
                l(5) =   2
     Q(r) pseudized with  8 coefficients,  rinner =    0.900   0.900   0.900
                                                       0.900   0.900

     PseudoPot. # 3 for C  read from file:
     /gpfs/pace1/project/chbe-medford/medford-share/data/pseudos/SSSP_eff_PBE/C.UPF
     MD5 check sum: d1aef80898a10debaa0f26306b886e00
     Pseudo is Ultrasoft + core correction, Zval =  4.0
     Generated by new atomic code, or converted to UPF format
     Using radial grid of  721 points,  4 beta functions with: 
                l(1) =   0
                l(2) =   0
                l(3) =   1
                l(4) =   1
     Q(r) pseudized with  8 coefficients,  rinner =    1.100   1.100   1.100


     PseudoPot. # 4 for  H read from file:
     /gpfs/pace1/project/chbe-medford/medford-share/data/pseudos/SSSP_eff_PBE/H.UPF
     MD5 check sum: 36633979392af7100e6f6632747262d3
     Pseudo is Ultrasoft, Zval =  1.0
     Generated using "atomic" code by A. Dal Corso  v.5.0.99 svn rev. 10869
     Using radial grid of  929 points,  2 beta functions with: 
                l(1) =   0
                l(2) =   0
     Q(r) pseudized with 0 coefficients 


     atomic species   valence    mass     pseudopotential
        Cu1           19.00    63.54600     Cu( 1.00)
        O1             6.00    15.99940     O ( 1.00)
        C1             4.00    12.01100     C ( 1.00)
        H1             1.00     1.00794      H( 1.00)

     No symmetry found



   Cartesian axes

     site n.     atom                  positions (alat units)
         1           Cu1 tau(   1) = (   0.0000000   0.0000000  10.0000000  )
         2           Cu1 tau(   2) = (   1.2780602   0.7378884  12.0870635  )
         3           Cu1 tau(   3) = (  -1.2780602   2.2136651  10.0000000  )
         4           Cu1 tau(   4) = (   0.0000000   2.9515535  12.0870635  )
         5           Cu1 tau(   5) = (  -2.5561203   4.4273302  10.0000000  )
         6           Cu1 tau(   6) = (  -1.2780602   5.1652186  12.0870635  )
         7           Cu1 tau(   7) = (  -3.8341805   6.6409954  10.0000000  )
         8           Cu1 tau(   8) = (  -2.5561203   7.3788837  12.0870635  )
         9           Cu1 tau(   9) = (   2.5561203   0.0000000  10.0000000  )
        10           Cu1 tau(  10) = (   3.8341805   0.7378884  12.0870635  )
        11           Cu1 tau(  11) = (   1.2780602   2.2136651  10.0000000  )
        12           Cu1 tau(  12) = (   2.5561203   2.9515535  12.0870635  )
        13           Cu1 tau(  13) = (   0.0000000   4.4273302  10.0000000  )
        14           Cu1 tau(  14) = (   1.2780602   5.1652186  12.0870635  )
        15           Cu1 tau(  15) = (  -1.2780602   6.6409954  10.0000000  )
        16           Cu1 tau(  16) = (   0.0000000   7.3788837  12.0870635  )
        17           Cu1 tau(  17) = (   5.1122406   0.0000000  10.0000000  )
        18           Cu1 tau(  18) = (   6.3903008   0.7378884  12.0870635  )
        19           Cu1 tau(  19) = (   3.8341805   2.2136651  10.0000000  )
        20           Cu1 tau(  20) = (   5.1122406   2.9515535  12.0870635  )
        21           Cu1 tau(  21) = (   2.5561203   4.4273302  10.0000000  )
        22           Cu1 tau(  22) = (   3.8341805   5.1652186  12.0870635  )
        23           Cu1 tau(  23) = (   1.2780602   6.6409954  10.0000000  )
        24           Cu1 tau(  24) = (   2.5561203   7.3788837  12.0870635  )
        25           Cu1 tau(  25) = (   7.6683609   0.0000000  10.0000000  )
        26           Cu1 tau(  26) = (   8.9464211   0.7378884  12.0870635  )
        27           Cu1 tau(  27) = (   6.3903008   2.2136651  10.0000000  )
        28           Cu1 tau(  28) = (   7.6683609   2.9515535  12.0870635  )
        29           Cu1 tau(  29) = (   5.1122406   4.4273302  10.0000000  )
        30           Cu1 tau(  30) = (   6.3903008   5.1652186  12.0870635  )
        31           Cu1 tau(  31) = (   3.8341805   6.6409954  10.0000000  )
        32           Cu1 tau(  32) = (   5.1122406   7.3788837  12.0870635  )
        33           O1  tau(  33) = (   5.4671000   1.5492590  18.9716303  )
        34           O1  tau(  34) = (   5.6232000   4.0487810  17.9570799  )
        35           O1  tau(  35) = (  -1.7611406   8.7736281  18.7460788  )
        36           O1  tau(  36) = (   2.8588000   4.4669746  17.3652866  )
        37           O1  tau(  37) = (   3.9763000   0.4219736  15.3510783  )
        38           O1  tau(  38) = (   5.1120000   4.4270000  14.5870635  )
        39           O1  tau(  39) = (   0.0710594   8.0786290  16.8472080  )
        40           O1  tau(  40) = (   4.1077000   6.1499924  15.6774993  )
        41           C1  tau(  41) = (   4.3258000   2.0374892  18.2478338  )
        42           C1  tau(  42) = (   4.8368000   3.0860275  17.2408314  )
        43           C1  tau(  43) = (   3.5613000   0.8388977  17.6717220  )
        44           C1  tau(  44) = (   3.7694000   3.8656065  16.4587505  )
        45           C1  tau(  45) = (   4.3341000   0.0745050  16.6116487  )
        46           C1  tau(  46) = (   4.3344000   4.9535640  15.5662721  )
        47           H1  tau(  47) = (   3.6997000   2.5205570  19.0080661  )
        48           H1  tau(  48) = (   5.5361000   2.6115597  16.5433109  )
        49           H1  tau(  49) = (   2.5839000   1.1386897  17.2802197  )
        50           H1  tau(  50) = (   3.1900000   3.1812121  15.8290187  )
        51           H1  tau(  51) = (   5.9126000   2.3181628  19.3666601  )
        52           H1  tau(  52) = (   5.0332000   4.5019983  18.5836969  )
        53           H1  tau(  53) = (  -2.3549406   8.0758329  18.4194216  )
        54           H1  tau(  54) = (   2.1213000   4.8292827  16.8451709  )
        55           H1  tau(  55) = (  -0.6332406   8.7733484  14.6755388  )
        56           H1  tau(  56) = (   5.4723000   5.1198596  13.9934023  )

     number of k points=    10  Fermi-Dirac smearing, width (Ry)=  0.0073
                       cart. coord. in units 2pi/alat
        k(    1) = (   0.0000000   0.0000000   0.0000000), wk =   0.1250000
        k(    2) = (   0.0000000   0.0282337   0.0000000), wk =   0.2500000
        k(    3) = (   0.0000000  -0.0564674   0.0000000), wk =   0.1250000
        k(    4) = (   0.0244511   0.0423506   0.0000000), wk =   0.2500000
        k(    5) = (  -0.0244511   0.0141169   0.0000000), wk =   0.2500000
        k(    6) = (   0.0244511   0.0141169   0.0000000), wk =   0.2500000
        k(    7) = (   0.0489022  -0.0282337   0.0000000), wk =   0.1250000
        k(    8) = (  -0.0489022  -0.0282337   0.0000000), wk =   0.1250000
        k(    9) = (  -0.0244511   0.0423506   0.0000000), wk =   0.2500000
        k(   10) = (   0.0489022  -0.0000000   0.0000000), wk =   0.2500000

     Dense  grid:  1822335 G-vectors     FFT dimensions: ( 120, 120, 324)

     Smooth grid:   622653 G-vectors     FFT dimensions: (  80,  80, 225)

     Largest allocated arrays     est. size (Mb)     dimensions
        Kohn-Sham Wavefunctions        35.45 Mb     (    6545,  355)
        NL pseudopotentials            74.70 Mb     (    6545,  748)
        Each V/rho on FFT grid          5.93 Mb     (  388800)
        Each G-vector array             1.16 Mb     (  151858)
        G-vector shells                 0.38 Mb     (   49240)
     Largest temporary arrays     est. size (Mb)     dimensions
        Auxiliary wavefunctions       141.81 Mb     (    6545, 1420)
        Each subspace H/S matrix       30.77 Mb     (    1420, 1420)
        Each <psi_i|beta_j> matrix      4.05 Mb     (     748,  355)
        Arrays for rho mixing          47.46 Mb     (  388800,    8)

     Initial potential from superposition of free atoms
     Check: negative starting charge=   -0.009635

     starting charge  657.99959, renormalised to  690.00000

     negative rho (up, down):  1.010E-02 0.000E+00
     Starting wfc are  482 randomized atomic wfcs

     total cpu time spent up to now is      122.2 secs

     per-process dynamical memory:   587.9 Mb

     Self-consistent Calculation

     iteration #  1     ecut=    40.42 Ry     beta=0.07
     Davidson diagonalization with overlap
     ethr =  1.00E-02,  avg # of iterations =  5.2

     negative rho (up, down):  1.580E-01 0.000E+00

     total cpu time spent up to now is      600.3 secs

     total energy              =  -13337.78712218 Ry
     Harris-Foulkes estimate   =  -13352.39486574 Ry
     estimated scf accuracy    <    1808.99741545 Ry

     iteration #  2     ecut=    40.42 Ry     beta=0.07
     Davidson diagonalization with overlap
     ethr =  1.00E-02,  avg # of iterations =  1.0

     negative rho (up, down):  2.189E+00 0.000E+00

     total cpu time spent up to now is      831.0 secs

     total energy              =  -13180.60946193 Ry
     Harris-Foulkes estimate   =  -13338.42126204 Ry
     estimated scf accuracy    <    1646.09332737 Ry

     iteration #  3     ecut=    40.42 Ry     beta=0.07
     Davidson diagonalization with overlap
     ethr =  1.00E-02,  avg # of iterations = 12.2

     negative rho (up, down):  1.870E+00 0.000E+00

     total cpu time spent up to now is     1463.4 secs

     total energy              =  -13277.29223515 Ry
     Harris-Foulkes estimate   =  -13292.10988135 Ry
     estimated scf accuracy    <     111.53228779 Ry

     iteration #  4     ecut=    40.42 Ry     beta=0.07
     Davidson diagonalization with overlap
     ethr =  1.00E-02,  avg # of iterations =  1.0

     negative rho (up, down):  1.532E+00 0.000E+00

     total cpu time spent up to now is     1709.4 secs

     total energy              =  -13264.32742251 Ry
     Harris-Foulkes estimate   =  -13278.66318218 Ry
     estimated scf accuracy    <      85.71964314 Ry

     iteration #  5     ecut=    40.42 Ry     beta=0.07
     Davidson diagonalization with overlap
     ethr =  1.00E-02,  avg # of iterations =  2.5

     negative rho (up, down):  1.557E+00 0.000E+00

     total cpu time spent up to now is     1959.7 secs

     total energy              =  -13268.23993947 Ry
     Harris-Foulkes estimate   =  -13268.67880197 Ry
     estimated scf accuracy    <     140.70225774 Ry

     iteration #  6     ecut=    40.42 Ry     beta=0.07
     Davidson diagonalization with overlap
     ethr =  1.00E-02,  avg # of iterations =  1.6

     negative rho (up, down):  1.469E+00 0.000E+00

     total cpu time spent up to now is     2207.9 secs

     total energy              =  -13260.15766034 Ry
     Harris-Foulkes estimate   =  -13268.92028964 Ry
     estimated scf accuracy    <     125.41564798 Ry

     iteration #  7     ecut=    40.42 Ry     beta=0.07
     Davidson diagonalization with overlap
     ethr =  1.00E-02,  avg # of iterations =  2.6

     negative rho (up, down):  1.482E+00 0.000E+00

     total cpu time spent up to now is     2466.8 secs

     total energy              =  -13262.85153435 Ry
     Harris-Foulkes estimate   =  -13264.01234951 Ry
     estimated scf accuracy    <      60.44579941 Ry

     iteration #  8     ecut=    40.42 Ry     beta=0.07
     Davidson diagonalization with overlap
     ethr =  8.76E-03,  avg # of iterations =  1.3

     negative rho (up, down):  1.506E+00 0.000E+00

     total cpu time spent up to now is     2713.6 secs

     total energy              =  -13263.80309155 Ry
     Harris-Foulkes estimate   =  -13264.34577893 Ry
     estimated scf accuracy    <      35.43333858 Ry

     iteration #  9     ecut=    40.42 Ry     beta=0.07
     Davidson diagonalization with overlap
     ethr =  5.14E-03,  avg # of iterations =  1.0

     negative rho (up, down):  1.526E+00 0.000E+00

     total cpu time spent up to now is     2959.9 secs

     total energy              =  -13263.63150640 Ry
     Harris-Foulkes estimate   =  -13264.05702770 Ry
     estimated scf accuracy    <      25.70744440 Ry

     iteration # 10     ecut=    40.42 Ry     beta=0.07
     Davidson diagonalization with overlap
     ethr =  3.73E-03,  avg # of iterations =  1.0

     negative rho (up, down):  1.523E+00 0.000E+00

     total cpu time spent up to now is     3210.9 secs

     total energy              =  -13263.52158996 Ry
     Harris-Foulkes estimate   =  -13263.71176989 Ry
     estimated scf accuracy    <      21.08721253 Ry

     iteration # 11     ecut=    40.42 Ry     beta=0.07
     Davidson diagonalization with overlap
     ethr =  3.06E-03,  avg # of iterations =  1.0

     negative rho (up, down):  1.467E+00 0.000E+00

     total cpu time spent up to now is     3461.8 secs

     total energy              =  -13262.77586958 Ry
     Harris-Foulkes estimate   =  -13263.55218510 Ry
     estimated scf accuracy    <      20.93353303 Ry

     iteration # 12     ecut=    40.42 Ry     beta=0.07
     Davidson diagonalization with overlap
     ethr =  3.03E-03,  avg # of iterations =  1.0

     negative rho (up, down):  1.511E+00 0.000E+00

     total cpu time spent up to now is     3720.8 secs

     total energy              =  -13261.99608512 Ry
     Harris-Foulkes estimate   =  -13262.92230743 Ry
     estimated scf accuracy    <      24.71452583 Ry

     iteration # 13     ecut=    40.42 Ry     beta=0.07
     Davidson diagonalization with overlap
     ethr =  3.03E-03,  avg # of iterations =  1.0

     negative rho (up, down):  1.334E+00 0.000E+00

     total cpu time spent up to now is     3978.5 secs

     total energy              =  -13261.47015525 Ry
     Harris-Foulkes estimate   =  -13262.41020588 Ry
     estimated scf accuracy    <      10.24855819 Ry

     iteration # 14     ecut=    40.42 Ry     beta=0.07
     Davidson diagonalization with overlap
     ethr =  1.49E-03,  avg # of iterations =  5.9

     negative rho (up, down):  1.272E+00 0.000E+00

     total cpu time spent up to now is     4286.0 secs

     total energy              =  -13261.75452066 Ry
     Harris-Foulkes estimate   =  -13262.20820976 Ry
     estimated scf accuracy    <      16.44989436 Ry

     iteration # 15     ecut=    40.42 Ry     beta=0.07
     Davidson diagonalization with overlap
     ethr =  1.49E-03,  avg # of iterations =  1.0

     negative rho (up, down):  1.156E+00 0.000E+00

     total cpu time spent up to now is     4549.1 secs

     total energy              =  -13261.50959030 Ry
     Harris-Foulkes estimate   =  -13261.82674784 Ry
     estimated scf accuracy    <      15.62983932 Ry

     iteration # 16     ecut=    40.42 Ry     beta=0.07
     Davidson diagonalization with overlap
     ethr =  1.49E-03,  avg # of iterations =  2.0

     negative rho (up, down):  1.177E+00 0.000E+00

     total cpu time spent up to now is     4811.2 secs

     total energy              =  -13261.52393081 Ry
     Harris-Foulkes estimate   =  -13261.68870718 Ry
     estimated scf accuracy    <      16.09644776 Ry

     iteration # 17     ecut=    40.42 Ry     beta=0.07
     Davidson diagonalization with overlap
     ethr =  1.49E-03,  avg # of iterations =  1.0

     negative rho (up, down):  1.159E+00 0.000E+00

     total cpu time spent up to now is     5067.1 secs

     total energy              =  -13261.68747039 Ry
     Harris-Foulkes estimate   =  -13261.65929696 Ry
     estimated scf accuracy    <      16.58070211 Ry

     iteration # 18     ecut=    40.42 Ry     beta=0.07
     Davidson diagonalization with overlap
     ethr =  1.49E-03,  avg # of iterations =  1.4

     negative rho (up, down):  1.270E+00 0.000E+00

     total cpu time spent up to now is     5326.4 secs

     total energy              =  -13261.23032468 Ry
     Harris-Foulkes estimate   =  -13261.86924702 Ry
     estimated scf accuracy    <      15.46288165 Ry

     iteration # 19     ecut=    40.42 Ry     beta=0.07
     Davidson diagonalization with overlap
     ethr =  1.49E-03,  avg # of iterations =  3.4

     negative rho (up, down):  1.261E+00 0.000E+00

     total cpu time spent up to now is     5615.1 secs

     total energy              =  -13261.15793941 Ry
     Harris-Foulkes estimate   =  -13261.46820900 Ry
     estimated scf accuracy    <       7.37408589 Ry

     iteration # 20     ecut=    40.42 Ry     beta=0.07
     Davidson diagonalization with overlap
     ethr =  1.07E-03,  avg # of iterations =  6.3

     negative rho (up, down):  1.216E+00 0.000E+00

     total cpu time spent up to now is     5956.7 secs

     total energy              =  -13261.64108349 Ry
     Harris-Foulkes estimate   =  -13263.46790841 Ry
     estimated scf accuracy    <      45.08696091 Ry

     iteration # 21     ecut=    40.42 Ry     beta=0.07
     Davidson diagonalization with overlap
     ethr =  1.07E-03,  avg # of iterations =  4.7

     negative rho (up, down):  1.264E+00 0.000E+00

     total cpu time spent up to now is     6260.0 secs

     total energy              =  -13261.60082799 Ry
     Harris-Foulkes estimate   =  -13261.87308741 Ry
     estimated scf accuracy    <      30.22625209 Ry

     iteration # 22     ecut=    40.42 Ry     beta=0.07
     Davidson diagonalization with overlap
     ethr =  1.07E-03,  avg # of iterations =  1.3

     negative rho (up, down):  1.224E+00 0.000E+00

     total cpu time spent up to now is     6530.8 secs

     total energy              =  -13261.92758883 Ry
     Harris-Foulkes estimate   =  -13261.69996301 Ry
     estimated scf accuracy    <      16.49350720 Ry

     iteration # 23     ecut=    40.42 Ry     beta=0.07
     Davidson diagonalization with overlap
     ethr =  1.07E-03,  avg # of iterations =  1.0

     negative rho (up, down):  1.142E+00 0.000E+00

     total cpu time spent up to now is     6801.1 secs

     total energy              =  -13260.95874051 Ry
     Harris-Foulkes estimate   =  -13262.06528119 Ry
     estimated scf accuracy    <      33.82477568 Ry

     iteration # 24     ecut=    40.42 Ry     beta=0.07
     Davidson diagonalization with overlap
     ethr =  1.07E-03,  avg # of iterations =  5.9

     negative rho (up, down):  1.217E+00 0.000E+00

     total cpu time spent up to now is     7119.9 secs

     total energy              =  -13261.62673288 Ry
     Harris-Foulkes estimate   =  -13261.58215890 Ry
     estimated scf accuracy    <      24.70078706 Ry

     iteration # 25     ecut=    40.42 Ry     beta=0.07
     Davidson diagonalization with overlap
     ethr =  1.07E-03,  avg # of iterations =  2.7

     negative rho (up, down):  1.227E+00 0.000E+00

     total cpu time spent up to now is     7412.0 secs

     total energy              =  -13260.89248307 Ry
     Harris-Foulkes estimate   =  -13261.75265735 Ry
     estimated scf accuracy    <      25.24072251 Ry

     iteration # 26     ecut=    40.42 Ry     beta=0.07
     Davidson diagonalization with overlap
     ethr =  1.07E-03,  avg # of iterations =  3.2

     negative rho (up, down):  1.257E+00 0.000E+00

     total cpu time spent up to now is     7704.2 secs

     total energy              =  -13261.34784435 Ry
     Harris-Foulkes estimate   =  -13261.45255402 Ry
     estimated scf accuracy    <      14.44375063 Ry

     iteration # 27     ecut=    40.42 Ry     beta=0.07
     Davidson diagonalization with overlap
     ethr =  1.07E-03,  avg # of iterations =  2.0

     negative rho (up, down):  1.251E+00 0.000E+00

     total cpu time spent up to now is     7986.8 secs

     total energy              =  -13261.80230928 Ry
     Harris-Foulkes estimate   =  -13261.47103581 Ry
     estimated scf accuracy    <       9.28855279 Ry

     iteration # 28     ecut=    40.42 Ry     beta=0.07
     Davidson diagonalization with overlap
     ethr =  1.07E-03,  avg # of iterations =  1.1

     negative rho (up, down):  1.073E+00 0.000E+00

     total cpu time spent up to now is     8260.7 secs

     total energy              =  -13259.24256240 Ry
     Harris-Foulkes estimate   =  -13263.10433639 Ry
     estimated scf accuracy    <      66.93459144 Ry

     iteration # 29     ecut=    40.42 Ry     beta=0.07
     Davidson diagonalization with overlap
     ethr =  1.07E-03,  avg # of iterations =  2.0

     negative rho (up, down):  1.015E+00 0.000E+00

     total cpu time spent up to now is     8549.1 secs

     total energy              =  -13260.54292227 Ry
     Harris-Foulkes estimate   =  -13261.18265707 Ry
     estimated scf accuracy    <      12.13617992 Ry

     iteration # 30     ecut=    40.42 Ry     beta=0.07
     Davidson diagonalization with overlap
     ethr =  1.07E-03,  avg # of iterations =  2.4

     negative rho (up, down):  1.013E+00 0.000E+00

     total cpu time spent up to now is     8834.2 secs

     total energy              =  -13260.96054175 Ry
     Harris-Foulkes estimate   =  -13260.98648715 Ry
     estimated scf accuracy    <       7.43411731 Ry

     iteration # 31     ecut=    40.42 Ry     beta=0.07
     Davidson diagonalization with overlap
     ethr =  1.07E-03,  avg # of iterations =  1.7

     negative rho (up, down):  8.776E-01 0.000E+00

     total cpu time spent up to now is     9112.4 secs

     total energy              =  -13261.06841494 Ry
     Harris-Foulkes estimate   =  -13261.00653703 Ry
     estimated scf accuracy    <       6.75631296 Ry

     iteration # 32     ecut=    40.42 Ry     beta=0.07
     Davidson diagonalization with overlap
     ethr =  9.79E-04,  avg # of iterations =  2.7

     negative rho (up, down):  7.816E-01 0.000E+00

     total cpu time spent up to now is     9397.8 secs

     total energy              =  -13260.18600637 Ry
     Harris-Foulkes estimate   =  -13261.17181588 Ry
     estimated scf accuracy    <       7.51943383 Ry

     iteration # 33     ecut=    40.42 Ry     beta=0.07
     Davidson diagonalization with overlap
     ethr =  9.79E-04,  avg # of iterations =  4.1

     negative rho (up, down):  7.371E-01 0.000E+00

     total cpu time spent up to now is     9701.1 secs

     total energy              =  -13260.35644106 Ry
     Harris-Foulkes estimate   =  -13260.51753069 Ry
     estimated scf accuracy    <       5.03784803 Ry

     iteration # 34     ecut=    40.42 Ry     beta=0.07
     Davidson diagonalization with overlap
     ethr =  7.30E-04,  avg # of iterations =  1.7

     negative rho (up, down):  6.593E-01 0.000E+00

     total cpu time spent up to now is     9979.1 secs

     total energy              =  -13260.13140531 Ry
     Harris-Foulkes estimate   =  -13260.42515508 Ry
     estimated scf accuracy    <       3.82260921 Ry

     iteration # 35     ecut=    40.42 Ry     beta=0.07
     Davidson diagonalization with overlap
     ethr =  5.54E-04,  avg # of iterations =  2.7

     negative rho (up, down):  6.039E-01 0.000E+00

     total cpu time spent up to now is    10272.7 secs

     total energy              =  -13260.06064362 Ry
     Harris-Foulkes estimate   =  -13260.22781586 Ry
     estimated scf accuracy    <       3.41144047 Ry

     iteration # 36     ecut=    40.42 Ry     beta=0.07
     Davidson diagonalization with overlap
     ethr =  4.94E-04,  avg # of iterations =  2.0

     negative rho (up, down):  4.910E-01 0.000E+00

     total cpu time spent up to now is    10553.0 secs

     total energy              =  -13259.53608448 Ry
     Harris-Foulkes estimate   =  -13260.11313257 Ry
     estimated scf accuracy    <       4.00852282 Ry

     iteration # 37     ecut=    40.42 Ry     beta=0.07
     Davidson diagonalization with overlap
     ethr =  4.94E-04,  avg # of iterations =  3.0

     negative rho (up, down):  4.753E-01 0.000E+00

     total cpu time spent up to now is    10845.5 secs

     total energy              =  -13259.63348450 Ry
     Harris-Foulkes estimate   =  -13259.75158131 Ry
     estimated scf accuracy    <       1.87628025 Ry

     iteration # 38     ecut=    40.42 Ry     beta=0.07
     Davidson diagonalization with overlap
     ethr =  2.72E-04,  avg # of iterations =  2.6

     negative rho (up, down):  4.324E-01 0.000E+00

     total cpu time spent up to now is    11135.8 secs

     total energy              =  -13259.38640457 Ry
     Harris-Foulkes estimate   =  -13259.66690733 Ry
     estimated scf accuracy    <       1.53996322 Ry

     iteration # 39     ecut=    40.42 Ry     beta=0.07
     Davidson diagonalization with overlap
     ethr =  2.23E-04,  avg # of iterations =  6.2

     negative rho (up, down):  3.977E-01 0.000E+00

     total cpu time spent up to now is    11468.6 secs

     total energy              =  -13259.47127829 Ry
     Harris-Foulkes estimate   =  -13259.49035151 Ry
     estimated scf accuracy    <       2.82082500 Ry

     iteration # 40     ecut=    40.42 Ry     beta=0.07
     Davidson diagonalization with overlap
     ethr =  2.23E-04,  avg # of iterations =  1.9

     negative rho (up, down):  3.457E-01 0.000E+00

     total cpu time spent up to now is    11751.9 secs

     total energy              =  -13259.29877476 Ry
     Harris-Foulkes estimate   =  -13259.48441781 Ry
     estimated scf accuracy    <       2.40118659 Ry

     iteration # 41     ecut=    40.42 Ry     beta=0.07
     Davidson diagonalization with overlap
     ethr =  2.23E-04,  avg # of iterations =  2.0

     negative rho (up, down):  3.350E-01 0.000E+00

     total cpu time spent up to now is    12040.7 secs

     total energy              =  -13259.29105207 Ry
     Harris-Foulkes estimate   =  -13259.35531072 Ry
     estimated scf accuracy    <       1.71337897 Ry

     iteration # 42     ecut=    40.42 Ry     beta=0.07
     Davidson diagonalization with overlap
     ethr =  2.23E-04,  avg # of iterations =  1.0

     negative rho (up, down):  2.853E-01 0.000E+00

     total cpu time spent up to now is    12312.1 secs

     total energy              =  -13259.23959227 Ry
     Harris-Foulkes estimate   =  -13259.34712677 Ry
     estimated scf accuracy    <       1.12444607 Ry

     iteration # 43     ecut=    40.42 Ry     beta=0.07
     Davidson diagonalization with overlap
     ethr =  1.63E-04,  avg # of iterations =  2.0

     negative rho (up, down):  2.731E-01 0.000E+00

     total cpu time spent up to now is    12597.1 secs

     total energy              =  -13259.25609352 Ry
     Harris-Foulkes estimate   =  -13259.28710062 Ry
     estimated scf accuracy    <       0.73512783 Ry

     iteration # 44     ecut=    40.42 Ry     beta=0.07
     Davidson diagonalization with overlap
     ethr =  1.07E-04,  avg # of iterations =  1.4

     negative rho (up, down):  1.960E-01 0.000E+00

     total cpu time spent up to now is    12870.4 secs

     total energy              =  -13259.14686714 Ry
     Harris-Foulkes estimate   =  -13259.26365318 Ry
     estimated scf accuracy    <       0.67016362 Ry

     iteration # 45     ecut=    40.42 Ry     beta=0.07
     Davidson diagonalization with overlap
     ethr =  9.71E-05,  avg # of iterations =  3.0

     negative rho (up, down):  2.017E-01 0.000E+00

     total cpu time spent up to now is    13160.4 secs

     total energy              =  -13259.06134279 Ry
     Harris-Foulkes estimate   =  -13259.16608073 Ry
     estimated scf accuracy    <       0.44511801 Ry

     iteration # 46     ecut=    40.42 Ry     beta=0.07
     Davidson diagonalization with overlap
     ethr =  6.45E-05,  avg # of iterations =  3.4

     negative rho (up, down):  3.070E-01 0.000E+00

     total cpu time spent up to now is    13467.8 secs

     total energy              =  -13259.09619451 Ry
     Harris-Foulkes estimate   =  -13259.09366348 Ry
     estimated scf accuracy    <       0.87237661 Ry

     iteration # 47     ecut=    40.42 Ry     beta=0.07
     Davidson diagonalization with overlap
     ethr =  6.45E-05,  avg # of iterations =  2.0

     negative rho (up, down):  1.829E-01 0.000E+00

     total cpu time spent up to now is    13747.7 secs

     total energy              =  -13259.09034653 Ry
     Harris-Foulkes estimate   =  -13259.10464425 Ry
     estimated scf accuracy    <       0.75794672 Ry

     iteration # 48     ecut=    40.42 Ry     beta=0.07
     Davidson diagonalization with overlap
     ethr =  6.45E-05,  avg # of iterations =  2.0

     negative rho (up, down):  1.275E-01 0.000E+00

     total cpu time spent up to now is    14028.5 secs

     total energy              =  -13259.08636037 Ry
     Harris-Foulkes estimate   =  -13259.09420628 Ry
     estimated scf accuracy    <       0.63976858 Ry

     iteration # 49     ecut=    40.42 Ry     beta=0.07
     Davidson diagonalization with overlap
     ethr =  6.45E-05,  avg # of iterations =  2.0

     negative rho (up, down):  2.531E-01 0.000E+00

     total cpu time spent up to now is    14315.1 secs

     total energy              =  -13259.05046683 Ry
     Harris-Foulkes estimate   =  -13259.10790489 Ry
     estimated scf accuracy    <       0.34008574 Ry

     iteration # 50     ecut=    40.42 Ry     beta=0.07
     Davidson diagonalization with overlap
     ethr =  4.93E-05,  avg # of iterations =  2.0

     negative rho (up, down):  3.571E-01 0.000E+00

     total cpu time spent up to now is    14605.2 secs

     total energy              =  -13259.04940193 Ry
     Harris-Foulkes estimate   =  -13259.07547518 Ry
     estimated scf accuracy    <       0.82306603 Ry

     iteration # 51     ecut=    40.42 Ry     beta=0.07
     Davidson diagonalization with overlap
     ethr =  4.93E-05,  avg # of iterations =  2.3

     negative rho (up, down):  4.188E-01 0.000E+00

     total cpu time spent up to now is    14874.5 secs

     total energy              =  -13259.03324886 Ry
     Harris-Foulkes estimate   =  -13259.05833351 Ry
     estimated scf accuracy    <       0.47733905 Ry

     iteration # 52     ecut=    40.42 Ry     beta=0.07
     Davidson diagonalization with overlap
     ethr =  4.93E-05,  avg # of iterations =  2.0

     negative rho (up, down):  4.193E-01 0.000E+00

     total cpu time spent up to now is    15138.7 secs

     total energy              =  -13259.04267951 Ry
     Harris-Foulkes estimate   =  -13259.04214138 Ry
     estimated scf accuracy    <       0.55813457 Ry

     iteration # 53     ecut=    40.42 Ry     beta=0.07
     Davidson diagonalization with overlap
     ethr =  4.93E-05,  avg # of iterations =  1.0

     negative rho (up, down):  3.533E-01 0.000E+00

     total cpu time spent up to now is    15394.6 secs

     total energy              =  -13259.03046468 Ry
     Harris-Foulkes estimate   =  -13259.04460053 Ry
     estimated scf accuracy    <       0.40880449 Ry

     iteration # 54     ecut=    40.42 Ry     beta=0.07
     Davidson diagonalization with overlap
     ethr =  4.93E-05,  avg # of iterations =  2.0

     negative rho (up, down):  3.585E-01 0.000E+00

     total cpu time spent up to now is    15659.5 secs

     total energy              =  -13259.02814665 Ry
     Harris-Foulkes estimate   =  -13259.03694315 Ry
     estimated scf accuracy    <       0.20034646 Ry

     iteration # 55     ecut=    40.42 Ry     beta=0.07
     Davidson diagonalization with overlap
     ethr =  2.90E-05,  avg # of iterations =  1.0

     negative rho (up, down):  4.683E-01 0.000E+00

     total cpu time spent up to now is    15915.1 secs

     total energy              =  -13259.02009864 Ry
     Harris-Foulkes estimate   =  -13259.02999114 Ry
     estimated scf accuracy    <       0.17540688 Ry

     iteration # 56     ecut=    40.42 Ry     beta=0.07
     Davidson diagonalization with overlap
     ethr =  2.54E-05,  avg # of iterations =  2.0

     negative rho (up, down):  4.096E-01 0.000E+00

     total cpu time spent up to now is    16180.6 secs

     total energy              =  -13259.00252775 Ry
     Harris-Foulkes estimate   =  -13259.02171053 Ry
     estimated scf accuracy    <       0.14858756 Ry

     iteration # 57     ecut=    40.42 Ry     beta=0.07
     Davidson diagonalization with overlap
     ethr =  2.15E-05,  avg # of iterations =  2.9

     negative rho (up, down):  3.607E-01 0.000E+00

     total cpu time spent up to now is    16457.8 secs

     total energy              =  -13258.99526654 Ry
     Harris-Foulkes estimate   =  -13259.00646470 Ry
     estimated scf accuracy    <       0.12958265 Ry

     iteration # 58     ecut=    40.42 Ry     beta=0.07
     Davidson diagonalization with overlap
     ethr =  1.88E-05,  avg # of iterations =  2.1

     negative rho (up, down):  2.939E-01 0.000E+00

     total cpu time spent up to now is    16723.2 secs

     total energy              =  -13258.97693884 Ry
     Harris-Foulkes estimate   =  -13258.99719384 Ry
     estimated scf accuracy    <       0.11319255 Ry

     iteration # 59     ecut=    40.42 Ry     beta=0.07
     Davidson diagonalization with overlap
     ethr =  1.64E-05,  avg # of iterations =  4.3

     negative rho (up, down):  2.557E-01 0.000E+00

     total cpu time spent up to now is    17014.7 secs

     total energy              =  -13258.97203856 Ry
     Harris-Foulkes estimate   =  -13258.98060888 Ry
     estimated scf accuracy    <       0.09015083 Ry

     iteration # 60     ecut=    40.42 Ry     beta=0.07
     Davidson diagonalization with overlap
     ethr =  1.31E-05,  avg # of iterations =  2.0

     negative rho (up, down):  2.600E-01 0.000E+00

     total cpu time spent up to now is    17280.8 secs

     total energy              =  -13258.96885157 Ry
     Harris-Foulkes estimate   =  -13258.97385522 Ry
     estimated scf accuracy    <       0.07667447 Ry

     iteration # 61     ecut=    40.42 Ry     beta=0.07
     Davidson diagonalization with overlap
     ethr =  1.11E-05,  avg # of iterations =  1.0

     negative rho (up, down):  2.309E-01 0.000E+00

     total cpu time spent up to now is    17537.8 secs

     total energy              =  -13258.95591742 Ry
     Harris-Foulkes estimate   =  -13258.96924251 Ry
     estimated scf accuracy    <       0.07097286 Ry

     iteration # 62     ecut=    40.42 Ry     beta=0.07
     Davidson diagonalization with overlap
     ethr =  1.03E-05,  avg # of iterations =  3.2

     negative rho (up, down):  1.966E-01 0.000E+00

     total cpu time spent up to now is    17821.9 secs

     total energy              =  -13258.95629126 Ry
     Harris-Foulkes estimate   =  -13258.95853236 Ry
     estimated scf accuracy    <       0.06314143 Ry

     iteration # 63     ecut=    40.42 Ry     beta=0.07
     Davidson diagonalization with overlap
     ethr =  9.15E-06,  avg # of iterations =  1.0

     negative rho (up, down):  1.693E-01 0.000E+00

     total cpu time spent up to now is    18081.0 secs

     total energy              =  -13258.95353727 Ry
     Harris-Foulkes estimate   =  -13258.95660205 Ry
     estimated scf accuracy    <       0.05923450 Ry

     iteration # 64     ecut=    40.42 Ry     beta=0.07
     Davidson diagonalization with overlap
     ethr =  8.58E-06,  avg # of iterations =  1.0

     negative rho (up, down):  8.456E-02 0.000E+00

     total cpu time spent up to now is    18339.6 secs

     total energy              =  -13258.94032898 Ry
     Harris-Foulkes estimate   =  -13258.95404111 Ry
     estimated scf accuracy    <       0.05134055 Ry

     iteration # 65     ecut=    40.42 Ry     beta=0.07
     Davidson diagonalization with overlap
     ethr =  7.44E-06,  avg # of iterations =  2.0

     negative rho (up, down):  7.186E-02 0.000E+00

     total cpu time spent up to now is    18611.8 secs

     total energy              =  -13258.93858536 Ry
     Harris-Foulkes estimate   =  -13258.94202686 Ry
     estimated scf accuracy    <       0.03656725 Ry

     iteration # 66     ecut=    40.42 Ry     beta=0.07
     Davidson diagonalization with overlap
     ethr =  5.30E-06,  avg # of iterations =  1.0

     negative rho (up, down):  5.639E-02 0.000E+00

     total cpu time spent up to now is    18871.5 secs

     total energy              =  -13258.93607379 Ry
     Harris-Foulkes estimate   =  -13258.93880147 Ry
     estimated scf accuracy    <       0.03256114 Ry

     iteration # 67     ecut=    40.42 Ry     beta=0.07
     Davidson diagonalization with overlap
     ethr =  4.72E-06,  avg # of iterations =  2.0

     negative rho (up, down):  8.230E-02 0.000E+00

     total cpu time spent up to now is    19140.5 secs

     total energy              =  -13258.93628896 Ry
     Harris-Foulkes estimate   =  -13258.93660504 Ry
     estimated scf accuracy    <       0.02906377 Ry

     iteration # 68     ecut=    40.42 Ry     beta=0.07
     Davidson diagonalization with overlap
     ethr =  4.21E-06,  avg # of iterations =  1.0

     negative rho (up, down):  8.613E-02 0.000E+00

     total cpu time spent up to now is    19398.7 secs

     total energy              =  -13258.93584846 Ry
     Harris-Foulkes estimate   =  -13258.93650631 Ry
     estimated scf accuracy    <       0.02702786 Ry

     iteration # 69     ecut=    40.42 Ry     beta=0.07
     Davidson diagonalization with overlap
     ethr =  3.92E-06,  avg # of iterations =  1.0

     negative rho (up, down):  6.495E-02 0.000E+00

     total cpu time spent up to now is    19656.9 secs

     total energy              =  -13258.93443540 Ry
     Harris-Foulkes estimate   =  -13258.93600207 Ry
     estimated scf accuracy    <       0.02590711 Ry

     iteration # 70     ecut=    40.42 Ry     beta=0.07
     Davidson diagonalization with overlap
     ethr =  3.75E-06,  avg # of iterations =  1.0

     negative rho (up, down):  6.926E-02 0.000E+00

     total cpu time spent up to now is    19915.8 secs

     total energy              =  -13258.92980262 Ry
     Harris-Foulkes estimate   =  -13258.93454092 Ry
     estimated scf accuracy    <       0.02353140 Ry

     iteration # 71     ecut=    40.42 Ry     beta=0.07
     Davidson diagonalization with overlap
     ethr =  3.41E-06,  avg # of iterations =  2.0

     negative rho (up, down):  1.110E-01 0.000E+00

     total cpu time spent up to now is    20191.2 secs

     total energy              =  -13258.93092193 Ry
     Harris-Foulkes estimate   =  -13258.93063061 Ry
     estimated scf accuracy    <       0.01749003 Ry

     iteration # 72     ecut=    40.42 Ry     beta=0.07
     Davidson diagonalization with overlap
     ethr =  2.53E-06,  avg # of iterations =  1.9

     negative rho (up, down):  7.561E-02 0.000E+00

     total cpu time spent up to now is    20455.7 secs

     total energy              =  -13258.92685789 Ry
     Harris-Foulkes estimate   =  -13258.93109557 Ry
     estimated scf accuracy    <       0.01554185 Ry

     iteration # 73     ecut=    40.42 Ry     beta=0.07
     Davidson diagonalization with overlap
     ethr =  2.25E-06,  avg # of iterations =  3.0

     negative rho (up, down):  7.012E-02 0.000E+00

     total cpu time spent up to now is    20744.1 secs

     total energy              =  -13258.92551921 Ry
     Harris-Foulkes estimate   =  -13258.92768713 Ry
     estimated scf accuracy    <       0.01283302 Ry

     iteration # 74     ecut=    40.42 Ry     beta=0.07
     Davidson diagonalization with overlap
     ethr =  1.86E-06,  avg # of iterations =  3.3

     negative rho (up, down):  8.392E-02 0.000E+00

     total cpu time spent up to now is    21025.8 secs

     total energy              =  -13258.92553826 Ry
     Harris-Foulkes estimate   =  -13258.92584582 Ry
     estimated scf accuracy    <       0.01044922 Ry

     iteration # 75     ecut=    40.42 Ry     beta=0.07
     Davidson diagonalization with overlap
     ethr =  1.51E-06,  avg # of iterations =  2.5

     negative rho (up, down):  8.269E-02 0.000E+00

     total cpu time spent up to now is    21302.4 secs

     total energy              =  -13258.92570767 Ry
     Harris-Foulkes estimate   =  -13258.92591672 Ry
     estimated scf accuracy    <       0.00804228 Ry

     iteration # 76     ecut=    40.42 Ry     beta=0.07
     Davidson diagonalization with overlap
     ethr =  1.17E-06,  avg # of iterations =  2.0

     negative rho (up, down):  5.316E-02 0.000E+00

     total cpu time spent up to now is    21570.2 secs

     total energy              =  -13258.92415141 Ry
     Harris-Foulkes estimate   =  -13258.92585767 Ry
     estimated scf accuracy    <       0.00662069 Ry

     iteration # 77     ecut=    40.42 Ry     beta=0.07
     Davidson diagonalization with overlap
     ethr =  9.60E-07,  avg # of iterations =  2.0

     negative rho (up, down):  4.762E-02 0.000E+00

     total cpu time spent up to now is    21848.7 secs

     total energy              =  -13258.92392357 Ry
     Harris-Foulkes estimate   =  -13258.92436018 Ry
     estimated scf accuracy    <       0.00447232 Ry

     iteration # 78     ecut=    40.42 Ry     beta=0.07
     Davidson diagonalization with overlap
     ethr =  6.48E-07,  avg # of iterations =  1.7

     negative rho (up, down):  2.867E-02 0.000E+00

     total cpu time spent up to now is    22115.5 secs

     total energy              =  -13258.92329367 Ry
     Harris-Foulkes estimate   =  -13258.92398473 Ry
     estimated scf accuracy    <       0.00398968 Ry

     iteration # 79     ecut=    40.42 Ry     beta=0.07
     Davidson diagonalization with overlap
     ethr =  5.78E-07,  avg # of iterations =  1.6

     negative rho (up, down):  1.899E-02 0.000E+00

     total cpu time spent up to now is    22381.9 secs

     total energy              =  -13258.92286808 Ry
     Harris-Foulkes estimate   =  -13258.92334071 Ry
     estimated scf accuracy    <       0.00360367 Ry

     iteration # 80     ecut=    40.42 Ry     beta=0.07
     Davidson diagonalization with overlap
     ethr =  5.22E-07,  avg # of iterations =  1.3

     negative rho (up, down):  2.738E-02 0.000E+00

     total cpu time spent up to now is    22644.1 secs

     total energy              =  -13258.92266691 Ry
     Harris-Foulkes estimate   =  -13258.92290171 Ry
     estimated scf accuracy    <       0.00297347 Ry

     iteration # 81     ecut=    40.42 Ry     beta=0.07
     Davidson diagonalization with overlap
     ethr =  4.31E-07,  avg # of iterations =  2.0

     negative rho (up, down):  2.216E-02 0.000E+00

     total cpu time spent up to now is    22919.2 secs

     total energy              =  -13258.92225927 Ry
     Harris-Foulkes estimate   =  -13258.92276852 Ry
     estimated scf accuracy    <       0.00199651 Ry

     iteration # 82     ecut=    40.42 Ry     beta=0.07
     Davidson diagonalization with overlap
     ethr =  2.89E-07,  avg # of iterations =  2.0

     negative rho (up, down):  2.586E-02 0.000E+00

     total cpu time spent up to now is    23193.0 secs

     total energy              =  -13258.92230486 Ry
     Harris-Foulkes estimate   =  -13258.92229805 Ry
     estimated scf accuracy    <       0.00157567 Ry

     iteration # 83     ecut=    40.42 Ry     beta=0.07
     Davidson diagonalization with overlap
     ethr =  2.28E-07,  avg # of iterations =  1.3

     negative rho (up, down):  2.878E-02 0.000E+00

     total cpu time spent up to now is    23460.0 secs

     total energy              =  -13258.92241029 Ry
     Harris-Foulkes estimate   =  -13258.92231668 Ry
     estimated scf accuracy    <       0.00140211 Ry

     iteration # 84     ecut=    40.42 Ry     beta=0.07
     Davidson diagonalization with overlap
     ethr =  2.03E-07,  avg # of iterations =  2.0

     negative rho (up, down):  1.745E-02 0.000E+00

     total cpu time spent up to now is    23732.9 secs

     total energy              =  -13258.92216065 Ry
     Harris-Foulkes estimate   =  -13258.92243120 Ry
     estimated scf accuracy    <       0.00104522 Ry

     iteration # 85     ecut=    40.42 Ry     beta=0.07
     Davidson diagonalization with overlap
     ethr =  1.51E-07,  avg # of iterations =  2.4

     negative rho (up, down):  1.348E-02 0.000E+00

     total cpu time spent up to now is    24023.5 secs

     total energy              =  -13258.92211178 Ry
     Harris-Foulkes estimate   =  -13258.92223421 Ry
     estimated scf accuracy    <       0.00087632 Ry

     iteration # 86     ecut=    40.42 Ry     beta=0.07
     Davidson diagonalization with overlap
     ethr =  1.27E-07,  avg # of iterations =  2.0

     negative rho (up, down):  1.567E-02 0.000E+00

     total cpu time spent up to now is    24299.7 secs

     total energy              =  -13258.92225531 Ry
     Harris-Foulkes estimate   =  -13258.92215174 Ry
     estimated scf accuracy    <       0.00059838 Ry

     iteration # 87     ecut=    40.42 Ry     beta=0.07
     Davidson diagonalization with overlap
     ethr =  8.67E-08,  avg # of iterations =  2.9

     negative rho (up, down):  1.207E-02 0.000E+00

     total cpu time spent up to now is    24585.5 secs

     total energy              =  -13258.92208019 Ry
     Harris-Foulkes estimate   =  -13258.92226468 Ry
     estimated scf accuracy    <       0.00051765 Ry

     iteration # 88     ecut=    40.42 Ry     beta=0.07
     Davidson diagonalization with overlap
     ethr =  7.50E-08,  avg # of iterations =  2.0

     negative rho (up, down):  1.600E-02 0.000E+00

     total cpu time spent up to now is    24861.0 secs

     total energy              =  -13258.92201523 Ry
     Harris-Foulkes estimate   =  -13258.92209307 Ry
     estimated scf accuracy    <       0.00030562 Ry

     iteration # 89     ecut=    40.42 Ry     beta=0.07
     Davidson diagonalization with overlap
     ethr =  4.43E-08,  avg # of iterations =  3.0

     negative rho (up, down):  1.521E-02 0.000E+00

     total cpu time spent up to now is    25156.3 secs

     total energy              =  -13258.92207675 Ry
     Harris-Foulkes estimate   =  -13258.92204096 Ry
     estimated scf accuracy    <       0.00013235 Ry

     iteration # 90     ecut=    40.42 Ry     beta=0.07
     Davidson diagonalization with overlap
     ethr =  1.92E-08,  avg # of iterations =  2.9

     negative rho (up, down):  1.438E-02 0.000E+00

     total cpu time spent up to now is    25442.6 secs

     total energy              =  -13258.92209336 Ry
     Harris-Foulkes estimate   =  -13258.92208221 Ry
     estimated scf accuracy    <       0.00011801 Ry

     iteration # 91     ecut=    40.42 Ry     beta=0.07
     Davidson diagonalization with overlap
     ethr =  1.71E-08,  avg # of iterations =  1.0

     negative rho (up, down):  1.269E-02 0.000E+00

     total cpu time spent up to now is    25709.0 secs

     total energy              =  -13258.92209467 Ry
     Harris-Foulkes estimate   =  -13258.92209488 Ry
     estimated scf accuracy    <       0.00010606 Ry

     iteration # 92     ecut=    40.42 Ry     beta=0.07
     Davidson diagonalization with overlap
     ethr =  1.54E-08,  avg # of iterations =  2.0

     negative rho (up, down):  1.088E-02 0.000E+00

     total cpu time spent up to now is    25988.4 secs

     total energy              =  -13258.92212258 Ry
     Harris-Foulkes estimate   =  -13258.92209595 Ry
     estimated scf accuracy    <       0.00008762 Ry

     iteration # 93     ecut=    40.42 Ry     beta=0.07
     Davidson diagonalization with overlap
     ethr =  1.27E-08,  avg # of iterations =  2.4

     negative rho (up, down):  1.079E-02 0.000E+00

     total cpu time spent up to now is    26266.0 secs

     total energy              =  -13258.92212153 Ry
     Harris-Foulkes estimate   =  -13258.92212519 Ry
     estimated scf accuracy    <       0.00006623 Ry

     iteration # 94     ecut=    40.42 Ry     beta=0.07
     Davidson diagonalization with overlap
     ethr =  9.60E-09,  avg # of iterations =  1.0

     negative rho (up, down):  8.832E-03 0.000E+00

     total cpu time spent up to now is    26537.4 secs

     total energy              =  -13258.92207082 Ry
     Harris-Foulkes estimate   =  -13258.92212203 Ry
     estimated scf accuracy    <       0.00005655 Ry

     iteration # 95     ecut=    40.42 Ry     beta=0.07
     Davidson diagonalization with overlap
     ethr =  8.19E-09,  avg # of iterations =  2.7

     negative rho (up, down):  6.432E-03 0.000E+00

     total cpu time spent up to now is    26822.6 secs

     total energy              =  -13258.92204600 Ry
     Harris-Foulkes estimate   =  -13258.92207320 Ry
     estimated scf accuracy    <       0.00003297 Ry

     iteration # 96     ecut=    40.42 Ry     beta=0.07
     Davidson diagonalization with overlap
     ethr =  4.78E-09,  avg # of iterations =  2.4

     negative rho (up, down):  5.876E-03 0.000E+00

     total cpu time spent up to now is    27098.2 secs

     total energy              =  -13258.92203905 Ry
     Harris-Foulkes estimate   =  -13258.92204669 Ry
     estimated scf accuracy    <       0.00002659 Ry

     iteration # 97     ecut=    40.42 Ry     beta=0.07
     Davidson diagonalization with overlap
     ethr =  3.85E-09,  avg # of iterations =  2.0

     negative rho (up, down):  5.476E-03 0.000E+00

     total cpu time spent up to now is    27370.8 secs

     total energy              =  -13258.92203045 Ry
     Harris-Foulkes estimate   =  -13258.92203944 Ry
     estimated scf accuracy    <       0.00002107 Ry

     iteration # 98     ecut=    40.42 Ry     beta=0.07
     Davidson diagonalization with overlap
     ethr =  3.05E-09,  avg # of iterations =  3.8

     negative rho (up, down):  5.222E-03 0.000E+00

     total cpu time spent up to now is    27678.6 secs

     total energy              =  -13258.92203148 Ry
     Harris-Foulkes estimate   =  -13258.92203281 Ry
     estimated scf accuracy    <       0.00000830 Ry

     iteration # 99     ecut=    40.42 Ry     beta=0.07
     Davidson diagonalization with overlap
     ethr =  1.20E-09,  avg # of iterations =  1.4

     negative rho (up, down):  4.931E-03 0.000E+00

     total cpu time spent up to now is    27949.1 secs

     total energy              =  -13258.92203369 Ry
     Harris-Foulkes estimate   =  -13258.92203164 Ry
     estimated scf accuracy    <       0.00000708 Ry

     iteration #100     ecut=    40.42 Ry     beta=0.07
     Davidson diagonalization with overlap
     ethr =  1.03E-09,  avg # of iterations =  2.5

     negative rho (up, down):  5.046E-03 0.000E+00

     total cpu time spent up to now is    28234.9 secs

     total energy              =  -13258.92203438 Ry
     Harris-Foulkes estimate   =  -13258.92203414 Ry
     estimated scf accuracy    <       0.00000494 Ry

     iteration #101     ecut=    40.42 Ry     beta=0.07
     Davidson diagonalization with overlap
     ethr =  7.16E-10,  avg # of iterations =  2.4

     negative rho (up, down):  4.944E-03 0.000E+00

     total cpu time spent up to now is    28514.0 secs

     total energy              =  -13258.92203507 Ry
     Harris-Foulkes estimate   =  -13258.92203455 Ry
     estimated scf accuracy    <       0.00000351 Ry

     iteration #102     ecut=    40.42 Ry     beta=0.07
     Davidson diagonalization with overlap
     ethr =  5.08E-10,  avg # of iterations =  2.0

     negative rho (up, down):  5.141E-03 0.000E+00

     total cpu time spent up to now is    28788.1 secs

     total energy              =  -13258.92203478 Ry
     Harris-Foulkes estimate   =  -13258.92203517 Ry
     estimated scf accuracy    <       0.00000254 Ry

     iteration #103     ecut=    40.42 Ry     beta=0.07
     Davidson diagonalization with overlap
     ethr =  3.68E-10,  avg # of iterations =  2.2

     negative rho (up, down):  5.152E-03 0.000E+00

     total cpu time spent up to now is    29067.7 secs

     total energy              =  -13258.92203480 Ry
     Harris-Foulkes estimate   =  -13258.92203488 Ry
     estimated scf accuracy    <       0.00000149 Ry

     iteration #104     ecut=    40.42 Ry     beta=0.07
     Davidson diagonalization with overlap
     ethr =  2.16E-10,  avg # of iterations =  2.0

     negative rho (up, down):  5.107E-03 0.000E+00

     total cpu time spent up to now is    29340.0 secs

     total energy              =  -13258.92203476 Ry
     Harris-Foulkes estimate   =  -13258.92203484 Ry
     estimated scf accuracy    <       0.00000117 Ry

     iteration #105     ecut=    40.42 Ry     beta=0.07
     Davidson diagonalization with overlap
     ethr =  1.70E-10,  avg # of iterations =  2.0

     negative rho (up, down):  5.098E-03 0.000E+00

     total cpu time spent up to now is    29613.8 secs

     total energy              =  -13258.92203453 Ry
     Harris-Foulkes estimate   =  -13258.92203477 Ry
     estimated scf accuracy    <       0.00000100 Ry

     iteration #106     ecut=    40.42 Ry     beta=0.07
     Davidson diagonalization with overlap
     ethr =  1.45E-10,  avg # of iterations =  2.2

     negative rho (up, down):  5.397E-03 0.000E+00

     total cpu time spent up to now is    29888.6 secs

     total energy              =  -13258.92203394 Ry
     Harris-Foulkes estimate   =  -13258.92203455 Ry
     estimated scf accuracy    <       0.00000068 Ry

     iteration #107     ecut=    40.42 Ry     beta=0.07
     Davidson diagonalization with overlap
     ethr =  9.90E-11,  avg # of iterations =  3.4

     negative rho (up, down):  5.393E-03 0.000E+00

     total cpu time spent up to now is    30182.5 secs

     End of self-consistent calculation

          k = 0.0000 0.0000 0.0000 ( 78011 PWs)   bands (ev):

  -113.8856-113.8116-113.7928-113.7896-113.7793-113.7779-113.7754-113.7748
  -113.7738-113.7733-113.7722-113.7713-113.7704-113.7698-113.7690-113.7685
  -113.7685-113.7678-113.7674-113.7664-113.7659-113.7655-113.7645-113.7637
  -113.7632-113.7630-113.7618-113.7612-113.7595-113.7591-113.7576-113.7561
   -71.3174 -71.3048 -71.2569 -71.2544 -71.2492 -71.2465 -71.2439 -71.2404
   -71.2403 -71.2384 -71.2362 -71.2322 -71.2309 -71.2283 -71.2271 -71.2267
   -71.2251 -71.2242 -71.2240 -71.2225 -71.2204 -71.2143 -71.2122 -71.2090
   -71.2087 -71.2056 -71.2045 -71.2031 -71.2020 -71.2012 -71.2003 -71.1992
   -71.1983 -71.1974 -71.1970 -71.1963 -71.1962 -71.1947 -71.1924 -71.1919
   -71.1914 -71.1901 -71.1898 -71.1893 -71.1877 -71.1855 -71.1813 -71.1805
   -71.1781 -71.1768 -71.1754 -71.1737 -71.1734 -71.1728 -71.1721 -71.1675
   -71.1662 -71.1641 -71.1635 -71.1633 -71.1629 -71.1617 -71.1607 -71.1543
   -71.1538 -71.1536 -71.1409 -71.1326 -71.1279 -71.1252 -71.1236 -71.1202
   -71.1184 -71.1144 -71.1128 -71.1103 -71.1076 -71.1065 -71.1057 -71.1028
   -71.1016 -71.0959 -71.0944 -71.0927 -71.0912 -71.0900 -71.0893 -71.0873
   -71.0869 -71.0855 -71.0843 -71.0831 -71.0828 -71.0814 -71.0798 -71.0773
   -24.6426 -24.3253 -23.0250 -22.5818 -22.3761 -22.1097 -21.7590 -21.5930
   -16.3674 -15.4427 -13.9590 -12.8616 -12.1143 -11.2426 -10.2880  -9.9651
    -9.5893  -9.5027  -9.3418  -8.8588  -8.5721  -8.5362  -8.1581  -8.0593
    -7.7325  -7.7139  -7.6929  -7.6852  -7.6837  -7.6824  -7.6810  -7.3791
    -6.9316  -6.8186  -6.6885  -6.5733  -6.1702  -5.8089  -5.8071  -5.8054
    -5.7817  -5.7803  -5.7776  -5.6498  -5.6482  -5.6473  -5.6448  -5.6421
    -5.6412  -5.6060  -5.5631  -5.5617  -5.5574  -5.5546  -5.5518  -5.5224
    -5.3256  -5.3237  -5.3231  -5.1053  -5.0539  -5.0455  -5.0418  -5.0392
    -5.0388  -5.0370  -5.0001  -4.9927  -4.9889  -4.9856  -4.9844  -4.9832
    -4.9124  -4.7981  -4.7887  -4.7870  -4.7859  -4.7843  -4.7821  -4.7411
    -4.5364  -4.4958  -4.4927  -4.4859  -4.4636  -4.4556  -4.4547  -4.4495
    -4.4486  -4.4463  -4.4286  -4.3861  -4.3810  -4.3722  -4.3694  -4.3692
    -4.3620  -4.3609  -4.3459  -4.3373  -4.3322  -4.3286  -4.3245  -4.3139
    -4.2465  -4.2436  -4.2408  -4.2397  -4.2376  -4.2356  -4.2351  -4.2341
    -4.2332  -4.2303  -4.2285  -4.2191  -4.2186  -4.2057  -4.1420  -4.1420
    -4.0807  -4.0784  -4.0765  -4.0734  -4.0716  -4.0579  -4.0494  -4.0481
    -4.0429  -4.0416  -4.0408  -4.0356  -3.9122  -3.9106  -3.9064  -3.8150
    -3.8103  -3.8055  -3.8048  -3.8031  -3.8014  -3.6752  -3.6405  -3.6040
    -3.6017  -3.5977  -3.5967  -3.5952  -3.5942  -3.5922  -3.5865  -3.5832
    -3.5817  -3.5760  -3.5681  -3.5625  -3.5601  -3.5508  -3.4827  -3.4290
    -3.4252  -3.4119  -3.4111  -3.4084  -3.4068  -3.4054  -3.4036  -3.3963
    -3.3950  -3.3897  -3.3885  -3.3858  -3.3852  -3.3506  -3.3355  -3.3162
    -3.3118  -3.3102  -3.3080  -3.3051  -3.3037  -3.3026  -3.2886  -3.1969
    -3.1562  -3.1540  -3.1496  -3.0798  -3.0755  -3.0657  -3.0647  -3.0621
    -3.0611  -3.0596  -3.0590  -2.9880  -2.9788  -2.9777  -2.9748  -2.9722
    -2.9718  -2.8859  -2.8720  -2.8699  -2.8667  -2.8170  -2.8159  -2.8139
    -2.5847  -2.1473  -2.1285  -2.1106  -2.1051  -2.0868  -2.0377  -1.3675
    -1.2090  -1.1979  -1.1961  -1.1944  -1.1922  -1.1865  -1.0663  -1.0504
    -1.0412   0.0460   0.0635

          k = 0.0000 0.0282 0.0000 ( 77928 PWs)   bands (ev):

  -113.8856-113.8116-113.7928-113.7896-113.7793-113.7779-113.7753-113.7749
  -113.7739-113.7734-113.7721-113.7714-113.7702-113.7697-113.7692-113.7686
  -113.7683-113.7679-113.7674-113.7664-113.7658-113.7654-113.7646-113.7637
  -113.7633-113.7629-113.7619-113.7612-113.7595-113.7591-113.7576-113.7561
   -71.3174 -71.3047 -71.2558 -71.2536 -71.2482 -71.2460 -71.2440 -71.2405
   -71.2383 -71.2372 -71.2353 -71.2342 -71.2298 -71.2291 -71.2282 -71.2270
   -71.2265 -71.2249 -71.2232 -71.2222 -71.2211 -71.2183 -71.2149 -71.2135
   -71.2107 -71.2099 -71.2078 -71.2066 -71.2050 -71.2023 -71.2002 -71.1989
   -71.1984 -71.1974 -71.1964 -71.1943 -71.1925 -71.1913 -71.1905 -71.1884
   -71.1878 -71.1875 -71.1863 -71.1838 -71.1831 -71.1825 -71.1813 -71.1808
   -71.1779 -71.1771 -71.1760 -71.1751 -71.1738 -71.1722 -71.1712 -71.1694
   -71.1675 -71.1668 -71.1654 -71.1642 -71.1630 -71.1618 -71.1599 -71.1577
   -71.1546 -71.1532 -71.1406 -71.1331 -71.1279 -71.1253 -71.1230 -71.1198
   -71.1181 -71.1144 -71.1135 -71.1102 -71.1084 -71.1073 -71.1051 -71.1020
   -71.1010 -71.0962 -71.0947 -71.0926 -71.0911 -71.0900 -71.0894 -71.0872
   -71.0868 -71.0855 -71.0842 -71.0831 -71.0828 -71.0814 -71.0798 -71.0773
   -24.6426 -24.3253 -23.0250 -22.5819 -22.3761 -22.1097 -21.7590 -21.5929
   -16.3672 -15.4430 -13.9589 -12.8617 -12.1145 -11.2422 -10.2885  -9.9633
    -9.5888  -9.3937  -9.3291  -8.8576  -8.5784  -8.5407  -8.4235  -8.1541
    -8.0575  -7.9962  -7.9861  -7.7157  -7.4261  -7.2172  -7.2022  -6.9371
    -6.9116  -6.7204  -6.6800  -6.5685  -6.1728  -6.0735  -6.0698  -5.9791
    -5.9576  -5.8250  -5.8237  -5.6918  -5.6902  -5.6795  -5.6705  -5.6682
    -5.6634  -5.6531  -5.5496  -5.4452  -5.3997  -5.3969  -5.3962  -5.3937
    -5.2939  -5.2913  -5.2852  -5.2087  -5.2024  -5.1076  -5.0969  -5.0939
    -5.0737  -5.0704  -5.0579  -5.0566  -5.0074  -5.0024  -4.9972  -4.9864
    -4.9849  -4.9206  -4.8882  -4.8676  -4.7678  -4.6721  -4.6662  -4.5605
    -4.5377  -4.5303  -4.5279  -4.4799  -4.4759  -4.4716  -4.4649  -4.4445
    -4.4300  -4.4195  -4.4172  -4.4084  -4.3800  -4.3790  -4.3731  -4.3691
    -4.3644  -4.3509  -4.3409  -4.3365  -4.3156  -4.3123  -4.2821  -4.2768
    -4.2739  -4.2641  -4.2556  -4.2510  -4.2449  -4.2415  -4.1870  -4.1802
    -4.1772  -4.1762  -4.1703  -4.1664  -4.1250  -4.1224  -4.1095  -4.1080
    -4.1017  -4.0835  -4.0679  -4.0649  -4.0628  -4.0572  -3.9786  -3.9555
    -3.9524  -3.9477  -3.9443  -3.9301  -3.9281  -3.9108  -3.8994  -3.8895
    -3.8270  -3.8203  -3.8102  -3.8048  -3.7978  -3.7965  -3.7006  -3.6649
    -3.6596  -3.6485  -3.6376  -3.6161  -3.6114  -3.6084  -3.6039  -3.5928
    -3.5503  -3.5434  -3.5045  -3.4905  -3.4689  -3.4396  -3.4278  -3.4215
    -3.4204  -3.4157  -3.4143  -3.4044  -3.3970  -3.3861  -3.3794  -3.3767
    -3.3675  -3.3613  -3.3574  -3.3512  -3.3468  -3.3212  -3.3191  -3.2963
    -3.2858  -3.2602  -3.2506  -3.2462  -3.2324  -3.2316  -3.2176  -3.2074
    -3.1812  -3.1782  -3.1590  -3.1363  -3.0963  -3.0939  -3.0889  -3.0869
    -3.0718  -3.0590  -3.0575  -3.0346  -3.0312  -3.0025  -3.0001  -2.9865
    -2.9794  -2.9784  -2.9731  -2.9148  -2.8962  -2.8909  -2.8824  -2.8694
    -2.6059  -2.5282  -2.3042  -2.2602  -2.1640  -2.1611  -1.9930  -1.7395
    -1.7074  -1.4526  -1.2076  -1.2039  -1.1580  -1.1503  -1.0977  -0.0921
    -0.0664   0.0923   0.1003

          k = 0.0000-0.0565 0.0000 ( 77806 PWs)   bands (ev):

  -113.8856-113.8116-113.7928-113.7896-113.7792-113.7779-113.7752-113.7749
  -113.7740-113.7735-113.7719-113.7716-113.7700-113.7697-113.7692-113.7687
  -113.7681-113.7680-113.7674-113.7665-113.7658-113.7652-113.7648-113.7637
  -113.7633-113.7629-113.7619-113.7612-113.7595-113.7591-113.7576-113.7561
   -71.3173 -71.3045 -71.2546 -71.2526 -71.2463 -71.2460 -71.2441 -71.2408
   -71.2371 -71.2346 -71.2334 -71.2331 -71.2322 -71.2321 -71.2281 -71.2275
   -71.2270 -71.2253 -71.2244 -71.2228 -71.2222 -71.2171 -71.2169 -71.2153
   -71.2147 -71.2140 -71.2127 -71.2086 -71.2071 -71.2030 -71.2008 -71.1975
   -71.1974 -71.1962 -71.1942 -71.1921 -71.1906 -71.1893 -71.1882 -71.1875
   -71.1863 -71.1839 -71.1835 -71.1823 -71.1819 -71.1809 -71.1800 -71.1793
   -71.1770 -71.1751 -71.1750 -71.1740 -71.1728 -71.1722 -71.1712 -71.1701
   -71.1688 -71.1684 -71.1677 -71.1663 -71.1655 -71.1634 -71.1623 -71.1580
   -71.1557 -71.1531 -71.1403 -71.1336 -71.1278 -71.1252 -71.1226 -71.1197
   -71.1161 -71.1156 -71.1144 -71.1100 -71.1090 -71.1078 -71.1049 -71.1016
   -71.0998 -71.0968 -71.0950 -71.0926 -71.0912 -71.0897 -71.0896 -71.0872
   -71.0868 -71.0854 -71.0842 -71.0832 -71.0828 -71.0815 -71.0798 -71.0773
   -24.6426 -24.3253 -23.0250 -22.5819 -22.3760 -22.1096 -21.7590 -21.5928
   -16.3671 -15.4432 -13.9588 -12.8618 -12.1147 -11.2419 -10.2890  -9.9615
    -9.5877  -9.3534  -9.0161  -9.0066  -8.8543  -8.5798  -8.5326  -8.1515
    -8.0999  -8.0935  -8.0528  -7.7166  -7.4139  -6.9310  -6.7317  -6.6469
    -6.6408  -6.6367  -6.6284  -6.5636  -6.3996  -6.3900  -6.3152  -6.3041
    -6.1730  -5.7781  -5.7769  -5.7741  -5.7711  -5.7118  -5.6999  -5.5608
    -5.5248  -5.5200  -5.4706  -5.4632  -5.4617  -5.4586  -5.3012  -5.2999
    -5.2170  -5.2118  -5.2102  -5.2021  -5.2012  -5.1998  -5.1952  -5.1951
    -5.1784  -5.1694  -5.1423  -5.1409  -5.0962  -5.0119  -5.0084  -4.9694
    -4.9580  -4.9558  -4.9547  -4.8879  -4.7679  -4.6158  -4.6122  -4.5572
    -4.5511  -4.5358  -4.4494  -4.4344  -4.4279  -4.4243  -4.4226  -4.4188
    -4.4161  -4.4145  -4.4131  -4.4089  -4.4051  -4.4013  -4.3970  -4.3932
    -4.3901  -4.3725  -4.3645  -4.3631  -4.3577  -4.3542  -4.3448  -4.3229
    -4.3174  -4.2928  -4.2914  -4.2534  -4.2493  -4.1871  -4.1832  -4.1810
    -4.1771  -4.1148  -4.1095  -4.0667  -4.0622  -4.0595  -4.0546  -4.0513
    -4.0497  -4.0477  -4.0461  -4.0442  -4.0413  -3.9956  -3.9871  -3.8783
    -3.8618  -3.8594  -3.8538  -3.8511  -3.8497  -3.8408  -3.8307  -3.8166
    -3.8127  -3.7996  -3.7939  -3.7876  -3.7860  -3.7823  -3.7767  -3.6789
    -3.6706  -3.6610  -3.6490  -3.6399  -3.6377  -3.6349  -3.6244  -3.6118
    -3.5540  -3.5406  -3.5177  -3.5041  -3.4805  -3.4689  -3.4660  -3.4587
    -3.4578  -3.4531  -3.4381  -3.4198  -3.4184  -3.3751  -3.3634  -3.3332
    -3.2833  -3.2764  -3.2738  -3.2725  -3.2513  -3.2477  -3.2417  -3.2398
    -3.2229  -3.2141  -3.2029  -3.2010  -3.1983  -3.1952  -3.1925  -3.1819
    -3.1799  -3.1346  -3.1328  -3.1133  -3.1081  -3.0947  -3.0914  -3.0900
    -3.0886  -3.0672  -3.0576  -3.0559  -3.0501  -3.0277  -3.0181  -3.0103
    -3.0059  -2.9797  -2.9688  -2.9640  -2.9622  -2.9543  -2.8846  -2.8470
    -2.8262  -2.8248  -2.8238  -2.8193  -2.5648  -2.3541  -2.3073  -1.2224
    -1.2129  -1.2070  -1.2057  -1.0950  -1.0561  -1.0509  -1.0389  -0.5739
    -0.5448  -0.4889  -0.4357

          k = 0.0245 0.0424 0.0000 ( 77832 PWs)   bands (ev):

  -113.8856-113.8116-113.7928-113.7896-113.7793-113.7778-113.7754-113.7750
  -113.7737-113.7734-113.7720-113.7715-113.7703-113.7698-113.7691-113.7687
  -113.7681-113.7679-113.7673-113.7666-113.7659-113.7652-113.7647-113.7638
  -113.7633-113.7629-113.7619-113.7612-113.7595-113.7591-113.7576-113.7561
   -71.3173 -71.3046 -71.2547 -71.2533 -71.2483 -71.2457 -71.2429 -71.2400
   -71.2361 -71.2349 -71.2333 -71.2320 -71.2312 -71.2306 -71.2295 -71.2280
   -71.2266 -71.2256 -71.2250 -71.2234 -71.2210 -71.2200 -71.2187 -71.2166
   -71.2135 -71.2123 -71.2106 -71.2089 -71.2058 -71.2035 -71.2020 -71.2008
   -71.1982 -71.1956 -71.1935 -71.1921 -71.1910 -71.1898 -71.1880 -71.1861
   -71.1850 -71.1844 -71.1831 -71.1822 -71.1813 -71.1803 -71.1792 -71.1781
   -71.1770 -71.1759 -71.1753 -71.1747 -71.1733 -71.1727 -71.1711 -71.1701
   -71.1698 -71.1688 -71.1672 -71.1667 -71.1661 -71.1632 -71.1595 -71.1590
   -71.1563 -71.1531 -71.1403 -71.1332 -71.1290 -71.1242 -71.1231 -71.1189
   -71.1178 -71.1148 -71.1135 -71.1111 -71.1093 -71.1070 -71.1047 -71.1023
   -71.0997 -71.0963 -71.0948 -71.0933 -71.0911 -71.0902 -71.0890 -71.0873
   -71.0868 -71.0853 -71.0843 -71.0832 -71.0828 -71.0815 -71.0798 -71.0773
   -24.6426 -24.3253 -23.0250 -22.5819 -22.3761 -22.1097 -21.7590 -21.5929
   -16.3672 -15.4430 -13.9590 -12.8619 -12.1145 -11.2420 -10.2884  -9.9626
    -9.5887  -9.3539  -9.1288  -8.8588  -8.6687  -8.6540  -8.5715  -8.5266
    -8.1528  -8.0556  -7.7162  -7.4619  -7.3772  -7.3359  -6.9314  -6.7282
    -6.6618  -6.5972  -6.5108  -6.5065  -6.4754  -6.1781  -6.1224  -6.1081
    -6.0827  -6.0806  -6.0619  -6.0593  -5.6129  -5.5924  -5.5649  -5.5376
    -5.5291  -5.4930  -5.4879  -5.4172  -5.4155  -5.3356  -5.3304  -5.3252
    -5.3200  -5.2995  -5.2939  -5.2409  -5.2358  -5.2191  -5.2182  -5.1242
    -5.1214  -5.1160  -5.1002  -5.0975  -5.0768  -5.0733  -5.0158  -4.9912
    -4.9651  -4.9121  -4.8814  -4.7852  -4.7777  -4.7609  -4.6859  -4.6359
    -4.6260  -4.5361  -4.4847  -4.4828  -4.4681  -4.4432  -4.4412  -4.4379
    -4.4337  -4.4274  -4.4215  -4.4183  -4.4063  -4.3919  -4.3851  -4.3817
    -4.3760  -4.3700  -4.3679  -4.3624  -4.3511  -4.3144  -4.3085  -4.2950
    -4.2760  -4.2638  -4.2288  -4.1975  -4.1937  -4.1886  -4.1790  -4.1565
    -4.1492  -4.0878  -4.0865  -4.0825  -4.0608  -4.0371  -4.0280  -4.0255
    -4.0217  -4.0180  -3.9738  -3.9652  -3.9388  -3.9303  -3.9287  -3.9221
    -3.9216  -3.9196  -3.9001  -3.8969  -3.8895  -3.8663  -3.8634  -3.8600
    -3.8539  -3.8330  -3.8278  -3.8099  -3.8028  -3.7884  -3.7657  -3.7567
    -3.7333  -3.7284  -3.7015  -3.6555  -3.6261  -3.6187  -3.5814  -3.5472
    -3.5253  -3.5173  -3.5075  -3.5031  -3.4908  -3.4563  -3.4496  -3.4321
    -3.4314  -3.4281  -3.4174  -3.4103  -3.4039  -3.3780  -3.3662  -3.3608
    -3.3415  -3.3369  -3.3159  -3.3028  -3.2571  -3.2466  -3.2398  -3.2349
    -3.2304  -3.2224  -3.2079  -3.2020  -3.1998  -3.1990  -3.1971  -3.1849
    -3.1774  -3.1476  -3.1447  -3.1420  -3.1397  -3.1203  -3.1106  -3.1004
    -3.0977  -3.0874  -3.0625  -3.0546  -3.0521  -3.0428  -3.0389  -3.0260
    -2.9951  -2.9939  -2.9768  -2.9568  -2.9557  -2.9102  -2.9037  -2.8784
    -2.7950  -2.6950  -2.6533  -2.5558  -2.2669  -2.2614  -2.2154  -2.2106
    -1.8398  -1.8132  -1.1003  -0.9226  -0.8953  -0.6656  -0.2313  -0.0465
    -0.0337   0.0293   0.0714

          k =-0.0245 0.0141 0.0000 ( 77928 PWs)   bands (ev):

  -113.8856-113.8116-113.7928-113.7896-113.7793-113.7778-113.7754-113.7750
  -113.7737-113.7733-113.7720-113.7713-113.7703-113.7700-113.7693-113.7686
  -113.7682-113.7678-113.7672-113.7664-113.7660-113.7655-113.7646-113.7637
  -113.7632-113.7630-113.7618-113.7612-113.7595-113.7591-113.7576-113.7561
   -71.3173 -71.3048 -71.2562 -71.2536 -71.2485 -71.2463 -71.2431 -71.2403
   -71.2382 -71.2370 -71.2349 -71.2333 -71.2306 -71.2292 -71.2278 -71.2271
   -71.2265 -71.2247 -71.2233 -71.2217 -71.2208 -71.2190 -71.2152 -71.2141
   -71.2128 -71.2088 -71.2075 -71.2068 -71.2060 -71.2027 -71.2004 -71.1989
   -71.1981 -71.1964 -71.1947 -71.1933 -71.1921 -71.1919 -71.1905 -71.1893
   -71.1886 -71.1880 -71.1853 -71.1841 -71.1826 -71.1818 -71.1813 -71.1798
   -71.1791 -71.1771 -71.1758 -71.1747 -71.1738 -71.1731 -71.1717 -71.1688
   -71.1682 -71.1666 -71.1662 -71.1635 -71.1631 -71.1620 -71.1594 -71.1578
   -71.1545 -71.1533 -71.1405 -71.1330 -71.1283 -71.1252 -71.1226 -71.1202
   -71.1172 -71.1145 -71.1139 -71.1108 -71.1085 -71.1067 -71.1047 -71.1025
   -71.1007 -71.0963 -71.0946 -71.0930 -71.0911 -71.0899 -71.0890 -71.0874
   -71.0869 -71.0856 -71.0842 -71.0831 -71.0828 -71.0815 -71.0797 -71.0773
   -24.6426 -24.3253 -23.0250 -22.5819 -22.3760 -22.1097 -21.7590 -21.5929
   -16.3673 -15.4429 -13.9589 -12.8615 -12.1145 -11.2425 -10.2883  -9.9636
    -9.5882  -9.3963  -9.3263  -8.8581  -8.5775  -8.5376  -8.4277  -8.1583
    -8.0633  -7.9929  -7.9805  -7.7150  -7.4279  -7.2198  -7.1992  -6.9338
    -6.9090  -6.7166  -6.6846  -6.5714  -6.1739  -6.0740  -6.0702  -5.9798
    -5.9595  -5.8255  -5.8230  -5.6925  -5.6900  -5.6767  -5.6703  -5.6682
    -5.6619  -5.6532  -5.5501  -5.4456  -5.4007  -5.3973  -5.3953  -5.3932
    -5.2922  -5.2917  -5.2864  -5.2072  -5.2030  -5.1069  -5.0981  -5.0926
    -5.0711  -5.0696  -5.0609  -5.0566  -5.0121  -5.0042  -4.9968  -4.9900
    -4.9842  -4.9194  -4.8880  -4.8615  -4.7659  -4.6718  -4.6675  -4.5609
    -4.5370  -4.5305  -4.5280  -4.4784  -4.4761  -4.4715  -4.4653  -4.4417
    -4.4287  -4.4223  -4.4159  -4.4100  -4.3829  -4.3769  -4.3745  -4.3691
    -4.3636  -4.3495  -4.3410  -4.3377  -4.3170  -4.3114  -4.2830  -4.2758
    -4.2738  -4.2628  -4.2568  -4.2499  -4.2455  -4.2420  -4.1883  -4.1808
    -4.1781  -4.1748  -4.1702  -4.1664  -4.1268  -4.1233  -4.1105  -4.1069
    -4.1017  -4.0828  -4.0692  -4.0651  -4.0632  -4.0552  -3.9777  -3.9549
    -3.9524  -3.9482  -3.9452  -3.9304  -3.9266  -3.9096  -3.8984  -3.8896
    -3.8245  -3.8219  -3.8143  -3.8035  -3.7969  -3.7961  -3.7009  -3.6655
    -3.6589  -3.6461  -3.6391  -3.6160  -3.6119  -3.6077  -3.6048  -3.5890
    -3.5555  -3.5409  -3.5008  -3.4899  -3.4730  -3.4390  -3.4276  -3.4222
    -3.4207  -3.4152  -3.4138  -3.4028  -3.4000  -3.3857  -3.3800  -3.3780
    -3.3628  -3.3616  -3.3565  -3.3503  -3.3478  -3.3214  -3.3176  -3.2949
    -3.2899  -3.2603  -3.2540  -3.2460  -3.2326  -3.2318  -3.2177  -3.2100
    -3.1801  -3.1794  -3.1581  -3.1345  -3.1002  -3.0916  -3.0881  -3.0861
    -3.0703  -3.0608  -3.0568  -3.0371  -3.0293  -3.0017  -2.9996  -2.9855
    -2.9804  -2.9765  -2.9758  -2.9149  -2.8940  -2.8925  -2.8826  -2.8693
    -2.5898  -2.5482  -2.2919  -2.2652  -2.1655  -2.1610  -1.9943  -1.7405
    -1.7051  -1.4562  -1.2072  -1.2042  -1.1552  -1.1516  -1.0959  -0.1023
    -0.0581   0.0887   0.1012

          k = 0.0245 0.0141 0.0000 ( 77928 PWs)   bands (ev):

  -113.8856-113.8116-113.7928-113.7896-113.7793-113.7778-113.7755-113.7750
  -113.7737-113.7733-113.7721-113.7713-113.7705-113.7698-113.7690-113.7685
  -113.7683-113.7679-113.7673-113.7665-113.7660-113.7654-113.7646-113.7637
  -113.7632-113.7629-113.7618-113.7612-113.7595-113.7592-113.7576-113.7561
   -71.3173 -71.3047 -71.2559 -71.2542 -71.2492 -71.2464 -71.2428 -71.2401
   -71.2388 -71.2363 -71.2351 -71.2314 -71.2303 -71.2299 -71.2286 -71.2264
   -71.2263 -71.2243 -71.2230 -71.2221 -71.2214 -71.2179 -71.2166 -71.2139
   -71.2127 -71.2095 -71.2080 -71.2069 -71.2046 -71.2041 -71.2002 -71.1988
   -71.1977 -71.1964 -71.1952 -71.1939 -71.1920 -71.1914 -71.1903 -71.1895
   -71.1886 -71.1871 -71.1859 -71.1837 -71.1830 -71.1826 -71.1811 -71.1806
   -71.1786 -71.1772 -71.1757 -71.1749 -71.1734 -71.1722 -71.1715 -71.1694
   -71.1680 -71.1667 -71.1652 -71.1644 -71.1625 -71.1620 -71.1599 -71.1574
   -71.1550 -71.1533 -71.1406 -71.1326 -71.1291 -71.1247 -71.1229 -71.1196
   -71.1180 -71.1144 -71.1134 -71.1109 -71.1086 -71.1065 -71.1051 -71.1026
   -71.1010 -71.0960 -71.0940 -71.0932 -71.0916 -71.0900 -71.0889 -71.0873
   -71.0868 -71.0854 -71.0843 -71.0831 -71.0828 -71.0815 -71.0798 -71.0773
   -24.6426 -24.3253 -23.0250 -22.5818 -22.3761 -22.1097 -21.7590 -21.5929
   -16.3674 -15.4427 -13.9590 -12.8618 -12.1143 -11.2423 -10.2879  -9.9643
    -9.5896  -9.3944  -9.3287  -8.8585  -8.5739  -8.5390  -8.4260  -8.1562
    -8.0641  -7.9923  -7.9811  -7.7152  -7.4280  -7.2161  -7.2061  -6.9362
    -6.9073  -6.7157  -6.6859  -6.5714  -6.1710  -6.0746  -6.0693  -5.9802
    -5.9596  -5.8243  -5.8235  -5.6926  -5.6899  -5.6820  -5.6703  -5.6672
    -5.6597  -5.6537  -5.5476  -5.4466  -5.4024  -5.3966  -5.3954  -5.3919
    -5.2935  -5.2918  -5.2851  -5.2051  -5.2037  -5.1127  -5.0950  -5.0918
    -5.0736  -5.0712  -5.0592  -5.0560  -5.0120  -4.9980  -4.9964  -4.9882
    -4.9839  -4.9183  -4.8875  -4.8693  -4.7693  -4.6730  -4.6648  -4.5605
    -4.5378  -4.5308  -4.5271  -4.4805  -4.4743  -4.4716  -4.4661  -4.4453
    -4.4281  -4.4207  -4.4164  -4.4087  -4.3802  -4.3780  -4.3726  -4.3700
    -4.3616  -4.3553  -4.3433  -4.3347  -4.3153  -4.3093  -4.2800  -4.2757
    -4.2722  -4.2672  -4.2588  -4.2499  -4.2458  -4.2378  -4.1873  -4.1811
    -4.1774  -4.1752  -4.1700  -4.1671  -4.1269  -4.1206  -4.1091  -4.1029
    -4.0998  -4.0875  -4.0703  -4.0652  -4.0617  -4.0539  -3.9838  -3.9552
    -3.9533  -3.9466  -3.9441  -3.9299  -3.9274  -3.9183  -3.8975  -3.8905
    -3.8265  -3.8210  -3.8102  -3.8037  -3.7982  -3.7961  -3.7006  -3.6647
    -3.6592  -3.6472  -3.6350  -3.6176  -3.6101  -3.6086  -3.6054  -3.5925
    -3.5518  -3.5424  -3.5016  -3.4890  -3.4740  -3.4386  -3.4299  -3.4200
    -3.4180  -3.4161  -3.4148  -3.4044  -3.4016  -3.3843  -3.3804  -3.3758
    -3.3670  -3.3612  -3.3543  -3.3520  -3.3462  -3.3205  -3.3192  -3.2959
    -3.2900  -3.2631  -3.2510  -3.2457  -3.2326  -3.2317  -3.2173  -3.2095
    -3.1810  -3.1788  -3.1576  -3.1322  -3.0981  -3.0934  -3.0884  -3.0865
    -3.0673  -3.0627  -3.0582  -3.0359  -3.0301  -3.0029  -3.0003  -2.9836
    -2.9800  -2.9799  -2.9731  -2.9149  -2.8955  -2.8909  -2.8812  -2.8694
    -2.6051  -2.5265  -2.2913  -2.2773  -2.1655  -2.1614  -1.9935  -1.7389
    -1.7090  -1.4531  -1.2107  -1.2013  -1.1596  -1.1473  -1.0948  -0.1032
    -0.0561   0.0888   0.1016

          k = 0.0489-0.0282 0.0000 ( 77806 PWs)   bands (ev):

  -113.8856-113.8116-113.7928-113.7896-113.7793-113.7778-113.7756-113.7751
  -113.7737-113.7733-113.7718-113.7712-113.7703-113.7700-113.7696-113.7686
  -113.7679-113.7677-113.7671-113.7667-113.7660-113.7654-113.7647-113.7637
  -113.7632-113.7629-113.7618-113.7612-113.7595-113.7592-113.7576-113.7561
   -71.3172 -71.3047 -71.2555 -71.2526 -71.2487 -71.2448 -71.2417 -71.2396
   -71.2374 -71.2344 -71.2337 -71.2326 -71.2322 -71.2309 -71.2292 -71.2271
   -71.2264 -71.2252 -71.2244 -71.2240 -71.2220 -71.2177 -71.2170 -71.2163
   -71.2156 -71.2139 -71.2134 -71.2096 -71.2071 -71.2024 -71.2001 -71.1987
   -71.1970 -71.1959 -71.1942 -71.1910 -71.1900 -71.1892 -71.1882 -71.1877
   -71.1859 -71.1841 -71.1832 -71.1829 -71.1809 -71.1801 -71.1795 -71.1783
   -71.1764 -71.1761 -71.1750 -71.1748 -71.1731 -71.1730 -71.1710 -71.1705
   -71.1700 -71.1695 -71.1678 -71.1668 -71.1636 -71.1634 -71.1623 -71.1577
   -71.1555 -71.1532 -71.1401 -71.1335 -71.1287 -71.1249 -71.1224 -71.1183
   -71.1179 -71.1149 -71.1139 -71.1117 -71.1093 -71.1067 -71.1044 -71.1023
   -71.0994 -71.0966 -71.0955 -71.0932 -71.0905 -71.0901 -71.0889 -71.0874
   -71.0869 -71.0856 -71.0841 -71.0831 -71.0827 -71.0816 -71.0797 -71.0773
   -24.6426 -24.3253 -23.0250 -22.5819 -22.3760 -22.1096 -21.7590 -21.5929
   -16.3672 -15.4431 -13.9588 -12.8614 -12.1147 -11.2424 -10.2886  -9.9622
    -9.5871  -9.3539  -9.0152  -9.0060  -8.8520  -8.5811  -8.5365  -8.1641
    -8.1037  -8.0864  -8.0441  -7.7154  -7.4155  -6.9303  -6.7191  -6.6469
    -6.6425  -6.6376  -6.6283  -6.5595  -6.4097  -6.3902  -6.3159  -6.3133
    -6.1700  -5.7776  -5.7764  -5.7750  -5.7713  -5.7099  -5.6976  -5.5589
    -5.5280  -5.5204  -5.4704  -5.4635  -5.4592  -5.4582  -5.3023  -5.2988
    -5.2177  -5.2122  -5.2075  -5.2015  -5.2004  -5.2001  -5.1958  -5.1943
    -5.1830  -5.1682  -5.1453  -5.1395  -5.0986  -5.0132  -5.0056  -4.9810
    -4.9571  -4.9558  -4.9552  -4.8749  -4.7640  -4.6170  -4.6114  -4.5564
    -4.5533  -4.5338  -4.4453  -4.4350  -4.4285  -4.4251  -4.4224  -4.4173
    -4.4172  -4.4136  -4.4123  -4.4082  -4.4055  -4.4047  -4.3976  -4.3930
    -4.3877  -4.3787  -4.3674  -4.3590  -4.3576  -4.3556  -4.3438  -4.3222
    -4.3202  -4.2927  -4.2898  -4.2541  -4.2477  -4.1871  -4.1849  -4.1829
    -4.1754  -4.1156  -4.1079  -4.0666  -4.0625  -4.0576  -4.0558  -4.0541
[...]
  -113.8527-113.8523-113.8513-113.8509-113.8503-113.8496-113.8480-113.8452
   -71.3686 -71.3638 -71.3365 -71.3337 -71.3300 -71.3285 -71.3247 -71.3242
   -71.3232 -71.3230 -71.3219 -71.3202 -71.3194 -71.3170 -71.3150 -71.3143
   -71.3136 -71.3125 -71.3112 -71.3101 -71.3068 -71.3060 -71.3052 -71.3041
   -71.3039 -71.3009 -71.2965 -71.2925 -71.2910 -71.2886 -71.2870 -71.2855
   -71.2851 -71.2822 -71.2811 -71.2786 -71.2772 -71.2769 -71.2757 -71.2753
   -71.2747 -71.2717 -71.2710 -71.2707 -71.2701 -71.2695 -71.2690 -71.2669
   -71.2665 -71.2631 -71.2629 -71.2624 -71.2618 -71.2607 -71.2600 -71.2593
   -71.2587 -71.2564 -71.2562 -71.2551 -71.2545 -71.2521 -71.2513 -71.2464
   -71.2458 -71.2295 -71.2254 -71.2199 -71.2185 -71.2112 -71.2104 -71.2067
   -71.2045 -71.2040 -71.2012 -71.1993 -71.1973 -71.1951 -71.1929 -71.1903
   -71.1862 -71.1848 -71.1831 -71.1823 -71.1803 -71.1785 -71.1768 -71.1757
   -71.1754 -71.1738 -71.1733 -71.1731 -71.1723 -71.1710 -71.1690 -71.1670
   -24.7769 -24.3121 -23.0168 -22.6309 -22.4192 -22.2373 -22.0587 -21.6348
   -16.3440 -15.3494 -13.8186 -12.6934 -12.0633 -10.9976 -10.2829  -9.7502
    -9.5122  -9.2720  -9.1357  -9.0999  -9.0927  -8.5823  -8.5330  -8.1908
    -8.1790  -8.0535  -7.9227  -7.5334  -7.4326  -6.9792  -6.7388  -6.7301
    -6.7266  -6.7234  -6.6537  -6.4991  -6.4917  -6.4247  -6.4023  -6.4001
    -6.2199  -5.8628  -5.8621  -5.8610  -5.8602  -5.7965  -5.7856  -5.6166
    -5.6149  -5.5905  -5.5519  -5.5493  -5.5485  -5.5435  -5.3887  -5.3857
    -5.2971  -5.2943  -5.2908  -5.2885  -5.2881  -5.2869  -5.2856  -5.2839
    -5.2615  -5.2596  -5.2317  -5.2277  -5.1293  -5.0963  -5.0931  -5.0515
    -5.0430  -5.0424  -5.0412  -4.9426  -4.8681  -4.7018  -4.6986  -4.6447
    -4.6369  -4.5972  -4.5669  -4.5162  -4.5112  -4.5082  -4.5063  -4.5049
    -4.5029  -4.5022  -4.5003  -4.4967  -4.4951  -4.4917  -4.4902  -4.4805
    -4.4782  -4.4605  -4.4519  -4.4479  -4.4457  -4.4436  -4.4388  -4.4094
    -4.4038  -4.3813  -4.3788  -4.3393  -4.3381  -4.2771  -4.2701  -4.2661
    -4.2611  -4.2020  -4.1984  -4.1477  -4.1461  -4.1429  -4.1412  -4.1394
    -4.1377  -4.1350  -4.1344  -4.1330  -4.1324  -4.0800  -4.0769  -3.9627
    -3.9553  -3.9508  -3.9430  -3.9401  -3.9379  -3.9360  -3.9249  -3.9096
    -3.9022  -3.8997  -3.8799  -3.8782  -3.8752  -3.8723  -3.8699  -3.8669
    -3.7612  -3.7564  -3.7307  -3.7272  -3.7265  -3.7257  -3.7240  -3.6968
    -3.6764  -3.6347  -3.6193  -3.5689  -3.5600  -3.5565  -3.5513  -3.5472
    -3.5412  -3.5386  -3.5249  -3.5075  -3.5051  -3.4541  -3.4489  -3.3696
    -3.3678  -3.3640  -3.3609  -3.3603  -3.3381  -3.3333  -3.3321  -3.3302
    -3.3297  -3.2950  -3.2889  -3.2875  -3.2863  -3.2845  -3.2829  -3.2702
    -3.2665  -3.2233  -3.2193  -3.1980  -3.1935  -3.1829  -3.1803  -3.1762
    -3.1747  -3.1505  -3.1478  -3.1405  -3.1392  -3.1104  -3.1071  -3.0976
    -3.0956  -3.0585  -3.0550  -3.0532  -3.0493  -3.0241  -2.9718  -2.9132
    -2.9128  -2.9115  -2.9090  -2.8364  -2.5141  -2.4345  -2.4169  -1.3038
    -1.2998  -1.2950  -1.2930  -1.1976  -1.1467  -1.1416  -1.1147  -0.6593
    -0.6435  -0.5837  -0.5351

          k =-0.0245 0.0424 0.0000 ( 77832 PWs)   bands (ev):

  -113.9364-113.8817-113.8814-113.8753-113.8658-113.8647-113.8634-113.8625
  -113.8612-113.8605-113.8601-113.8589-113.8586-113.8579-113.8573-113.8567
  -113.8565-113.8560-113.8555-113.8553-113.8543-113.8540-113.8537-113.8533
  -113.8528-113.8522-113.8512-113.8509-113.8503-113.8496-113.8480-113.8452
   -71.3688 -71.3638 -71.3344 -71.3327 -71.3299 -71.3284 -71.3266 -71.3252
   -71.3237 -71.3220 -71.3217 -71.3205 -71.3190 -71.3183 -71.3160 -71.3154
   -71.3146 -71.3126 -71.3113 -71.3099 -71.3088 -71.3071 -71.3047 -71.3026
   -71.2988 -71.2968 -71.2961 -71.2932 -71.2925 -71.2915 -71.2887 -71.2849
   -71.2838 -71.2828 -71.2806 -71.2793 -71.2785 -71.2779 -71.2760 -71.2740
   -71.2734 -71.2718 -71.2714 -71.2707 -71.2687 -71.2679 -71.2667 -71.2661
   -71.2657 -71.2654 -71.2640 -71.2632 -71.2627 -71.2617 -71.2598 -71.2592
   -71.2586 -71.2576 -71.2565 -71.2558 -71.2545 -71.2518 -71.2486 -71.2481
   -71.2450 -71.2289 -71.2266 -71.2202 -71.2169 -71.2123 -71.2105 -71.2066
   -71.2047 -71.2033 -71.2016 -71.1992 -71.1972 -71.1955 -71.1927 -71.1897
   -71.1863 -71.1853 -71.1838 -71.1820 -71.1794 -71.1786 -71.1772 -71.1758
   -71.1750 -71.1741 -71.1734 -71.1731 -71.1721 -71.1710 -71.1690 -71.1670
   -24.7769 -24.3121 -23.0169 -22.6310 -22.4191 -22.2372 -22.0588 -21.6348
   -16.3438 -15.3498 -13.8184 -12.6930 -12.0638 -10.9975 -10.2839  -9.7491
    -9.5078  -9.2744  -9.2160  -9.1286  -8.7497  -8.7451  -8.5810  -8.5413
    -8.0572  -7.9252  -7.5402  -7.4905  -7.4673  -7.3992  -6.9683  -6.7716
    -6.6717  -6.6019  -6.5974  -6.5911  -6.4267  -6.2471  -6.2063  -6.1875
    -6.1696  -6.1678  -6.1491  -6.1460  -5.6983  -5.6796  -5.6278  -5.6234
    -5.5935  -5.5774  -5.5730  -5.5031  -5.5007  -5.4185  -5.4172  -5.4119
    -5.4077  -5.3840  -5.3810  -5.3275  -5.3208  -5.3055  -5.3044  -5.2081
    -5.2074  -5.1926  -5.1909  -5.1690  -5.1647  -5.1278  -5.1007  -5.0773
    -5.0512  -4.9778  -4.9521  -4.8777  -4.8648  -4.8517  -4.7655  -4.7233
    -4.7182  -4.5961  -4.5718  -4.5694  -4.5648  -4.5450  -4.5268  -4.5234
    -4.5217  -4.5184  -4.5113  -4.5080  -4.5010  -4.4783  -4.4744  -4.4704
    -4.4630  -4.4595  -4.4528  -4.4516  -4.4416  -4.3985  -4.3968  -4.3805
    -4.3630  -4.3521  -4.3161  -4.2830  -4.2812  -4.2731  -4.2675  -4.2426
    -4.2406  -4.1746  -4.1721  -4.1690  -4.1473  -4.1196  -4.1140  -4.1120
    -4.1115  -4.1092  -4.0573  -4.0536  -4.0212  -4.0160  -4.0130  -4.0111
    -4.0091  -4.0058  -3.9862  -3.9841  -3.9759  -3.9609  -3.9503  -3.9470
    -3.9456  -3.9353  -3.9184  -3.9139  -3.8951  -3.8914  -3.8687  -3.8489
    -3.8468  -3.8188  -3.8140  -3.7863  -3.7308  -3.7063  -3.6703  -3.6545
    -3.6123  -3.6032  -3.5948  -3.5892  -3.5809  -3.5412  -3.5265  -3.5177
    -3.5152  -3.5060  -3.5037  -3.4954  -3.4926  -3.4578  -3.4536  -3.4300
    -3.4260  -3.4212  -3.4006  -3.3637  -3.3448  -3.3391  -3.3308  -3.3262
    -3.3204  -3.3179  -3.2900  -3.2883  -3.2868  -3.2860  -3.2850  -3.2699
    -3.2669  -3.2345  -3.2308  -3.2291  -3.2268  -3.2069  -3.1957  -3.1881
    -3.1846  -3.1791  -3.1460  -3.1443  -3.1394  -3.1283  -3.1275  -3.1132
    -3.0819  -3.0812  -3.0551  -3.0448  -3.0429  -2.9957  -2.9936  -2.8840
    -2.8719  -2.7708  -2.7449  -2.5027  -2.3543  -2.3489  -2.3011  -2.2987
    -1.9342  -1.8990  -1.1925  -1.0040  -0.9964  -0.7609  -0.3142  -0.1417
    -0.1239  -0.0520  -0.0420

          k = 0.0489-0.0000 0.0000 ( 77832 PWs)   bands (ev):

  -113.9364-113.8817-113.8813-113.8753-113.8659-113.8646-113.8633-113.8627
  -113.8613-113.8603-113.8600-113.8591-113.8585-113.8579-113.8574-113.8568
  -113.8562-113.8560-113.8558-113.8553-113.8543-113.8539-113.8536-113.8533
  -113.8528-113.8522-113.8513-113.8509-113.8503-113.8496-113.8480-113.8452
   -71.3686 -71.3639 -71.3355 -71.3327 -71.3300 -71.3288 -71.3257 -71.3249
   -71.3227 -71.3226 -71.3211 -71.3203 -71.3192 -71.3179 -71.3169 -71.3152
   -71.3145 -71.3123 -71.3108 -71.3104 -71.3091 -71.3068 -71.3033 -71.3024
   -71.3010 -71.2975 -71.2957 -71.2930 -71.2927 -71.2912 -71.2898 -71.2851
   -71.2839 -71.2825 -71.2801 -71.2792 -71.2780 -71.2770 -71.2763 -71.2745
   -71.2736 -71.2719 -71.2715 -71.2706 -71.2688 -71.2675 -71.2668 -71.2661
   -71.2656 -71.2649 -71.2635 -71.2632 -71.2625 -71.2618 -71.2604 -71.2597
   -71.2592 -71.2571 -71.2564 -71.2560 -71.2540 -71.2518 -71.2485 -71.2482
   -71.2451 -71.2292 -71.2259 -71.2204 -71.2173 -71.2119 -71.2103 -71.2070
   -71.2047 -71.2029 -71.2018 -71.1996 -71.1973 -71.1952 -71.1925 -71.1902
   -71.1862 -71.1849 -71.1833 -71.1826 -71.1797 -71.1785 -71.1768 -71.1757
   -71.1753 -71.1741 -71.1734 -71.1730 -71.1721 -71.1710 -71.1690 -71.1670
   -24.7769 -24.3121 -23.0168 -22.6310 -22.4191 -22.2372 -22.0588 -21.6348
   -16.3439 -15.3496 -13.8184 -12.6931 -12.0635 -10.9977 -10.2833  -9.7500
    -9.5098  -9.2752  -9.2151  -9.1297  -8.7519  -8.7433  -8.5788  -8.5373
    -8.0589  -7.9250  -7.5387  -7.4854  -7.4652  -7.4088  -6.9694  -6.7712
    -6.6681  -6.6031  -6.5987  -6.5913  -6.4293  -6.2452  -6.2045  -6.1922
    -6.1687  -6.1627  -6.1493  -6.1482  -5.6985  -5.6791  -5.6277  -5.6230
    -5.5922  -5.5780  -5.5747  -5.5036  -5.5010  -5.4187  -5.4176  -5.4111
    -5.4077  -5.3853  -5.3792  -5.3275  -5.3210  -5.3052  -5.3045  -5.2082
    -5.2072  -5.1938  -5.1893  -5.1675  -5.1654  -5.1276  -5.1015  -5.0771
    -5.0515  -4.9807  -4.9473  -4.8811  -4.8632  -4.8522  -4.7680  -4.7213
    -4.7180  -4.5976  -4.5716  -4.5693  -4.5655  -4.5424  -4.5265  -4.5231
    -4.5211  -4.5193  -4.5132  -4.5052  -4.5018  -4.4788  -4.4726  -4.4702
    -4.4632  -4.4591  -4.4535  -4.4520  -4.4414  -4.3997  -4.3961  -4.3804
    -4.3631  -4.3517  -4.3164  -4.2826  -4.2814  -4.2739  -4.2674  -4.2418
    -4.2393  -4.1745  -4.1718  -4.1691  -4.1477  -4.1197  -4.1147  -4.1118
    -4.1108  -4.1080  -4.0573  -4.0537  -4.0214  -4.0161  -4.0131  -4.0105
    -4.0095  -4.0076  -3.9861  -3.9841  -3.9762  -3.9585  -3.9515  -3.9487
    -3.9442  -3.9382  -3.9183  -3.9141  -3.8942  -3.8906  -3.8666  -3.8523
    -3.8457  -3.8189  -3.8148  -3.7854  -3.7338  -3.7032  -3.6693  -3.6537
    -3.6048  -3.6026  -3.5964  -3.5903  -3.5875  -3.5414  -3.5291  -3.5184
    -3.5149  -3.5069  -3.5017  -3.4961  -3.4917  -3.4571  -3.4532  -3.4309
    -3.4259  -3.4239  -3.4012  -3.3622  -3.3441  -3.3377  -3.3323  -3.3271
    -3.3205  -3.3172  -3.2923  -3.2883  -3.2864  -3.2859  -3.2844  -3.2711
    -3.2662  -3.2346  -3.2306  -3.2298  -3.2265  -3.2063  -3.1945  -3.1891
    -3.1845  -3.1775  -3.1469  -3.1437  -3.1387  -3.1293  -3.1268  -3.1132
    -3.0817  -3.0812  -3.0521  -3.0450  -3.0422  -2.9967  -2.9925  -2.8847
    -2.8730  -2.7674  -2.7482  -2.5033  -2.3522  -2.3506  -2.3009  -2.2989
    -1.9269  -1.9083  -1.1924  -1.0103  -0.9886  -0.7651  -0.3142  -0.1414
    -0.1063  -0.0734  -0.0251

     the Fermi energy is    -1.6120 ev

!    total energy              =  -13258.96065193 Ry
     Harris-Foulkes estimate   =  -13258.96065178 Ry
     estimated scf accuracy    <       0.00000025 Ry

     The total energy is the sum of the following terms:

     one-electron contribution = -113792.34414484 Ry
     hartree contribution      =   56897.46498201 Ry
     xc contribution           =   -1327.56179503 Ry
     ewald contribution        =   44963.49865140 Ry
     smearing contrib. (-TS)   =      -0.01834546 Ry

     convergence has been achieved in  73 iterations

     Forces acting on atoms (Ry/au):


     negative rho (up, down):  5.348E-03 0.000E+00
     atom    1 type  1   force =    -0.00010857    0.00003863   -0.00035387
     atom    2 type  1   force =    -0.00008694    0.00018215    0.00055116
     atom    3 type  1   force =     0.00000350   -0.00012170   -0.00066279
     atom    4 type  1   force =     0.00010550    0.00001113    0.00056717
     atom    5 type  1   force =     0.00002806   -0.00019027   -0.00132742
     atom    6 type  1   force =    -0.00017657    0.00000392    0.00106764
     atom    7 type  1   force =    -0.00009518    0.00012792   -0.00157593
     atom    8 type  1   force =     0.00000831   -0.00035618    0.00147531
     atom    9 type  1   force =    -0.00011020    0.00017678   -0.00077013
     atom   10 type  1   force =     0.00003189   -0.00018582   -0.00107397
     atom   11 type  1   force =     0.00003850   -0.00006941   -0.00090081
     atom   12 type  1   force =    -0.00071868   -0.00003338   -0.00016433
     atom   13 type  1   force =     0.00008079    0.00001619   -0.00055462
     atom   14 type  1   force =     0.00002212   -0.00019290    0.00063669
     atom   15 type  1   force =     0.00001451   -0.00013428   -0.00090732
     atom   16 type  1   force =    -0.00017326    0.00053960    0.00090004
     atom   17 type  1   force =     0.00009609    0.00004400   -0.00131441
     atom   18 type  1   force =    -0.00043398   -0.00044791    0.00072285
     atom   19 type  1   force =    -0.00013481    0.00011568   -0.00042419
     atom   20 type  1   force =    -0.00004781   -0.00120681    0.00063685
     atom   21 type  1   force =    -0.00000728   -0.00002280   -0.00059383
     atom   22 type  1   force =    -0.00133407    0.00096791   -0.00277291
     atom   23 type  1   force =     0.00009288   -0.00010132   -0.00068873
     atom   24 type  1   force =    -0.00028813    0.00007972    0.00138318
     atom   25 type  1   force =     0.00010873    0.00003807   -0.00066094
     atom   26 type  1   force =     0.00000987    0.00014770    0.00047304
     atom   27 type  1   force =     0.00010040    0.00011287   -0.00042773
     atom   28 type  1   force =     0.00040727    0.00003965    0.00032480
     atom   29 type  1   force =    -0.00002527   -0.00013574   -0.00136797
     atom   30 type  1   force =     0.00340879    0.00259680   -0.00843937
     atom   31 type  1   force =    -0.00001380    0.00009839   -0.00070119
     atom   32 type  1   force =     0.00061753   -0.00076976    0.00187684
     atom   33 type  2   force =    -0.00405349   -0.00087073   -0.00339659
     atom   34 type  2   force =    -0.00062959   -0.00080145    0.00357330
     atom   35 type  2   force =    -0.00458670   -0.01453822   -0.00485998
     atom   36 type  2   force =     0.00369088   -0.00785490    0.00769037
     atom   37 type  2   force =     0.00301263    0.00066099    0.00483405
     atom   38 type  2   force =     0.00344183   -0.00956910   -0.00104585
     atom   39 type  2   force =    -0.00236381   -0.00194684   -0.00796883
     atom   40 type  2   force =    -0.00114437   -0.00525770   -0.00458346
     atom   41 type  3   force =     0.00019752   -0.00155478   -0.00068951
     atom   42 type  3   force =    -0.00386970    0.00176911   -0.00030505
     atom   43 type  3   force =    -0.00456178    0.00531487   -0.00223444
     atom   44 type  3   force =    -0.00441633   -0.00084699   -0.00089878
     atom   45 type  3   force =     0.00039765   -0.00080812    0.00864899
     atom   46 type  3   force =    -0.00434962    0.00702445    0.00424324
     atom   47 type  4   force =     0.00255605    0.00056613    0.00047996
     atom   48 type  4   force =     0.00215267   -0.00516093   -0.00024968
     atom   49 type  4   force =     0.00002135    0.00346168    0.00623459
     atom   50 type  4   force =    -0.00033335   -0.00174545    0.00104990
     atom   51 type  4   force =     0.00368959    0.00139992    0.00143866
     atom   52 type  4   force =    -0.00166991    0.00109176    0.00380411
     atom   53 type  4   force =     0.00463253    0.00660144    0.00233836
     atom   54 type  4   force =    -0.00029127    0.01219307   -0.00386153
     atom   55 type  4   force =     0.00493960   -0.00279843    0.00162249
     atom   56 type  4   force =     0.00211745    0.01230137   -0.00079743

     Total force =     0.040460     Total SCF correction =     0.001636
 !ASE

     Writing output data file calc.save
     Check: negative starting charge=   -0.009632
     NEW-OLD atomic charge density approx. for the potential
     Check: negative starting charge=   -0.009634

     negative rho (up, down):  5.400E-03 0.000E+00

     total cpu time spent up to now is    65286.1 secs

     per-process dynamical memory:   628.6 Mb

     Self-consistent Calculation

     iteration #  1     ecut=    40.42 Ry     beta=0.15
     Davidson diagonalization with overlap
     ethr =  7.12E-11,  avg # of iterations =  9.7

     negative rho (up, down):  5.278E-03 0.000E+00

     total cpu time spent up to now is    71154.7 secs

     total energy              =  -13258.94516572 Ry
     Harris-Foulkes estimate   =  -13258.94602381 Ry
     estimated scf accuracy    <       0.00977725 Ry

     iteration #  2     ecut=    40.42 Ry     beta=0.15
     Davidson diagonalization with overlap
     ethr =  1.42E-06,  avg # of iterations =  1.3

     negative rho (up, down):  5.439E-03 0.000E+00

     total cpu time spent up to now is    73218.2 secs

     total energy              =  -13258.94197205 Ry
     Harris-Foulkes estimate   =  -13258.94520091 Ry
     estimated scf accuracy    <       0.00726034 Ry

     iteration #  3     ecut=    40.42 Ry     beta=0.15
     Davidson diagonalization with overlap
     ethr =  1.05E-06,  avg # of iterations =  3.0

     negative rho (up, down):  5.262E-03 0.000E+00

     total cpu time spent up to now is    75523.1 secs

     total energy              =  -13258.94313146 Ry
     Harris-Foulkes estimate   =  -13258.94317699 Ry
     estimated scf accuracy    <       0.00105025 Ry

     iteration #  4     ecut=    40.42 Ry     beta=0.15
     Davidson diagonalization with overlap
     ethr =  1.52E-07,  avg # of iterations =  1.6

     negative rho (up, down):  5.259E-03 0.000E+00

     total cpu time spent up to now is    77553.9 secs

     total energy              =  -13258.94270632 Ry
     Harris-Foulkes estimate   =  -13258.94313790 Ry
     estimated scf accuracy    <       0.00090377 Ry

     iteration #  5     ecut=    40.42 Ry     beta=0.15
     Davidson diagonalization with overlap
     ethr =  1.31E-07,  avg # of iterations =  4.0

     negative rho (up, down):  5.148E-03 0.000E+00

     total cpu time spent up to now is    79801.1 secs

     total energy              =  -13258.94286475 Ry
     Harris-Foulkes estimate   =  -13258.94288324 Ry
     estimated scf accuracy    <       0.00019969 Ry

     iteration #  6     ecut=    40.42 Ry     beta=0.15
     Davidson diagonalization with overlap
     ethr =  2.89E-08,  avg # of iterations =  3.7

     negative rho (up, down):  5.013E-03 0.000E+00

     total cpu time spent up to now is    81222.6 secs

     total energy              =  -13258.94283439 Ry
     Harris-Foulkes estimate   =  -13258.94287631 Ry
     estimated scf accuracy    <       0.00013728 Ry

     iteration #  7     ecut=    40.42 Ry     beta=0.15
     Davidson diagonalization with overlap
     ethr =  1.99E-08,  avg # of iterations =  3.0

     negative rho (up, down):  4.984E-03 0.000E+00

     total cpu time spent up to now is    82259.9 secs

     total energy              =  -13258.94284142 Ry
     Harris-Foulkes estimate   =  -13258.94284537 Ry
     estimated scf accuracy    <       0.00006628 Ry

     iteration #  8     ecut=    40.42 Ry     beta=0.15
     Davidson diagonalization with overlap
     ethr =  9.61E-09,  avg # of iterations =  1.8

     negative rho (up, down):  5.010E-03 0.000E+00

     total cpu time spent up to now is    83210.2 secs

     total energy              =  -13258.94282746 Ry
     Harris-Foulkes estimate   =  -13258.94284196 Ry
     estimated scf accuracy    <       0.00005204 Ry

     iteration #  9     ecut=    40.42 Ry     beta=0.15
     Davidson diagonalization with overlap
     ethr =  7.54E-09,  avg # of iterations =  4.0

     negative rho (up, down):  4.999E-03 0.000E+00

     total cpu time spent up to now is    84329.3 secs

     total energy              =  -13258.94283543 Ry
     Harris-Foulkes estimate   =  -13258.94283535 Ry
     estimated scf accuracy    <       0.00003010 Ry

     iteration # 10     ecut=    40.42 Ry     beta=0.15
     Davidson diagonalization with overlap
     ethr =  4.36E-09,  avg # of iterations =  1.7

     negative rho (up, down):  5.060E-03 0.000E+00

     total cpu time spent up to now is    85240.9 secs

     total energy              =  -13258.94283064 Ry
     Harris-Foulkes estimate   =  -13258.94283564 Ry
     estimated scf accuracy    <       0.00002658 Ry

     iteration # 11     ecut=    40.42 Ry     beta=0.15
     Davidson diagonalization with overlap
     ethr =  3.85E-09,  avg # of iterations =  3.0

     negative rho (up, down):  5.062E-03 0.000E+00

     total cpu time spent up to now is    86278.5 secs

     total energy              =  -13258.94283212 Ry
     Harris-Foulkes estimate   =  -13258.94283260 Ry
     estimated scf accuracy    <       0.00001736 Ry

     iteration # 12     ecut=    40.42 Ry     beta=0.15
     Davidson diagonalization with overlap
