  python dir          : /gpfs/pace1/project/chbe-medford/medford-share/gits/frozen/ben_espresso_8_24_2017/espresso
  espresso dir        : /nv/hp22/amedford6/medford-shared/builds/espresso/5.1.r11289-pybeef/intel-16.0+mvapich2-2.2+mkl-11.3/espresso-5.1.r11289-pybeef/bin
  pseudo dir          : /gpfs/pace1/project/chbe-medford/medford-share/data/pseudos/SSSP_eff_PBE
  ase-espresso py git : GITVERSION



     Program PWSCF v.5.1rc2 starts on  6Apr2019 at 22:24:50 

     This program is part of the open-source Quantum ESPRESSO suite
     for quantum simulation of materials; please cite
         "P. Giannozzi et al., J. Phys.:Condens. Matter 21 395502 (2009);
          URL http://www.quantum-espresso.org", 
     in publications or presentations arising from this work. More details at
     http://www.quantum-espresso.org/quote

     Parallel version (MPI), running on    12 processors
     R & G space division:  proc/nbgrp/npool/nimage =      12
     Reading input from pw.inp
     Message from routine read_cards :
     DEPRECATED: no units specified in CELL_PARAMETERS card

     Current dimensions of program PWSCF are:
     Max number of different atomic species (ntypx) = 10
     Max number of k-points (npk) =  40000
     Max angular momentum in pseudopotentials (lmaxx) =  3

     IMPORTANT: XC functional enforced from input :
     Exchange-correlation      = PBE ( 1  4  3  4 0)
     Any further DFT definition will be discarded
     Please, verify this is what you really want

               file Rh.UPF: wavefunction(s)  4S 5S 4D renormalized

     Subspace diagonalization in iterative solution of the eigenvalue problem:
     a serial algorithm will be used

 
     Parallelization info
     --------------------
     sticks:   dense  smooth     PW     G-vecs:    dense   smooth      PW
     Min         783     384    101               168735    57688    7825
     Max         784     385    102               168748    57727    7834
     Sum        9403    4615   1213              2024909   692451   93943
 


     bravais-lattice index     =            0
     lattice parameter (alat)  =       1.8897  a.u.
     unit-cell volume          =   19935.2767 (a.u.)^3
     number of atoms/cell      =           56
     number of atomic types    =            4
     number of electrons       =       626.00
     number of Kohn-Sham states=          323
     kinetic-energy cutoff     =      40.4243  Ry
     charge density cutoff     =     330.7439  Ry
     convergence threshold     =      3.7E-07
     mixing beta               =       0.0750
     number of iterations used =            8  local-TF  mixing
     Exchange-correlation      = PBE ( 1  4  3  4 0)
     nstep                     =           50


     celldm(1)=   1.889726  celldm(2)=   0.000000  celldm(3)=   0.000000
     celldm(4)=   0.000000  celldm(5)=   0.000000  celldm(6)=   0.000000

     crystal axes: (cart. coord. in units of alat)
               a(1) = (  10.757640   0.000000   0.000000 )  
               a(2) = (  -5.378820   9.316389   0.000000 )  
               a(3) = (   0.000000   0.000000  29.475491 )  

     reciprocal axes: (cart. coord. in units 2 pi/alat)
               b(1) = (  0.092957  0.053669  0.000000 )  
               b(2) = (  0.000000  0.107338  0.000000 )  
               b(3) = (  0.000000  0.000000  0.033926 )  


     PseudoPot. # 1 for Rh read from file:
     /gpfs/pace1/project/chbe-medford/medford-share/data/pseudos/SSSP_eff_PBE/Rh.UPF
     MD5 check sum: ceb12254454c5aaeede670f925ab9aba
     Pseudo is Projector augmented-wave + core cor, Zval = 17.0
     Generated using "atomic" code by A. Dal Corso  v.5.1
     Shape of augmentation charge: PSQ
     Using radial grid of 1233 points,  6 beta functions with: 
                l(1) =   0
                l(2) =   0
                l(3) =   1
                l(4) =   1
                l(5) =   2
                l(6) =   2
     Q(r) pseudized with 0 coefficients 


     PseudoPot. # 2 for O  read from file:
     /gpfs/pace1/project/chbe-medford/medford-share/data/pseudos/SSSP_eff_PBE/O.UPF
     MD5 check sum: 734c27235a0248c51dbae37a1fbe46ec
     Pseudo is Ultrasoft + core correction, Zval =  6.0
     Generated by new atomic code, or converted to UPF format
     Using radial grid of  737 points,  5 beta functions with: 
                l(1) =   0
                l(2) =   0
                l(3) =   1
                l(4) =   1
                l(5) =   2
     Q(r) pseudized with  8 coefficients,  rinner =    0.900   0.900   0.900
                                                       0.900   0.900

     PseudoPot. # 3 for C  read from file:
     /gpfs/pace1/project/chbe-medford/medford-share/data/pseudos/SSSP_eff_PBE/C.UPF
     MD5 check sum: d1aef80898a10debaa0f26306b886e00
     Pseudo is Ultrasoft + core correction, Zval =  4.0
     Generated by new atomic code, or converted to UPF format
     Using radial grid of  721 points,  4 beta functions with: 
                l(1) =   0
                l(2) =   0
                l(3) =   1
                l(4) =   1
     Q(r) pseudized with  8 coefficients,  rinner =    1.100   1.100   1.100


     PseudoPot. # 4 for  H read from file:
     /gpfs/pace1/project/chbe-medford/medford-share/data/pseudos/SSSP_eff_PBE/H.UPF
     MD5 check sum: 36633979392af7100e6f6632747262d3
     Pseudo is Ultrasoft, Zval =  1.0
     Generated using "atomic" code by A. Dal Corso  v.5.0.99 svn rev. 10869
     Using radial grid of  929 points,  2 beta functions with: 
                l(1) =   0
                l(2) =   0
     Q(r) pseudized with 0 coefficients 


     atomic species   valence    mass     pseudopotential
        Rh1           17.00   102.90550     Rh( 1.00)
        O1             6.00    15.99940     O ( 1.00)
        C1             4.00    12.01100     C ( 1.00)
        H1             1.00     1.00794      H( 1.00)

     No symmetry found



   Cartesian axes

     site n.     atom                  positions (alat units)
         1           Rh1 tau(   1) = (   0.0000000   0.0000000  10.0000000  )
         2           Rh1 tau(   2) = (   1.3447050   0.7763658  12.1958940  )
         3           Rh1 tau(   3) = (  -1.3447050   2.3290973  10.0000000  )
         4           Rh1 tau(   4) = (   0.0000000   3.1054631  12.1958940  )
         5           Rh1 tau(   5) = (  -2.6894099   4.6581946  10.0000000  )
         6           Rh1 tau(   6) = (  -1.3447050   5.4345604  12.1958940  )
         7           Rh1 tau(   7) = (  -4.0341149   6.9872920  10.0000000  )
         8           Rh1 tau(   8) = (  -2.6894099   7.7636577  12.1958940  )
         9           Rh1 tau(   9) = (   2.6894099   0.0000000  10.0000000  )
        10           Rh1 tau(  10) = (   4.0341149   0.7763658  12.1958940  )
        11           Rh1 tau(  11) = (   1.3447050   2.3290973  10.0000000  )
        12           Rh1 tau(  12) = (   2.6894099   3.1054631  12.1958940  )
        13           Rh1 tau(  13) = (   0.0000000   4.6581946  10.0000000  )
        14           Rh1 tau(  14) = (   1.3447050   5.4345604  12.1958940  )
        15           Rh1 tau(  15) = (  -1.3447050   6.9872920  10.0000000  )
        16           Rh1 tau(  16) = (   0.0000000   7.7636577  12.1958940  )
        17           Rh1 tau(  17) = (   5.3788199   0.0000000  10.0000000  )
        18           Rh1 tau(  18) = (   6.7235248   0.7763658  12.1958940  )
        19           Rh1 tau(  19) = (   4.0341149   2.3290973  10.0000000  )
        20           Rh1 tau(  20) = (   5.3788199   3.1054631  12.1958940  )
        21           Rh1 tau(  21) = (   2.6894099   4.6581946  10.0000000  )
        22           Rh1 tau(  22) = (   4.0341149   5.4345604  12.1958940  )
        23           Rh1 tau(  23) = (   1.3447050   6.9872920  10.0000000  )
        24           Rh1 tau(  24) = (   2.6894099   7.7636577  12.1958940  )
        25           Rh1 tau(  25) = (   8.0682298   0.0000000  10.0000000  )
        26           Rh1 tau(  26) = (   9.4129348   0.7763658  12.1958940  )
        27           Rh1 tau(  27) = (   6.7235248   2.3290973  10.0000000  )
        28           Rh1 tau(  28) = (   8.0682298   3.1054631  12.1958940  )
        29           Rh1 tau(  29) = (   5.3788199   4.6581946  10.0000000  )
        30           Rh1 tau(  30) = (   6.7235248   5.4345604  12.1958940  )
        31           Rh1 tau(  31) = (   4.0341149   6.9872920  10.0000000  )
        32           Rh1 tau(  32) = (   5.3788199   7.7636577  12.1958940  )
        33           O1  tau(  33) = (   5.7341000   1.7802590  19.0804609  )
        34           O1  tau(  34) = (   5.8902000   4.2797810  18.0659105  )
        35           O1  tau(  35) = (   3.6181000   0.1499676  18.8549093  )
        36           O1  tau(  36) = (   3.1258000   4.6979746  17.4741171  )
        37           O1  tau(  37) = (   4.2433000   0.6529736  15.4599088  )
        38           O1  tau(  38) = (   5.3790000   4.6580000  14.6958940  )
        39           O1  tau(  39) = (   0.0714801   8.7713579  16.9560385  )
        40           O1  tau(  40) = (   4.3747000   6.3809924  15.7863298  )
        41           C1  tau(  41) = (   4.5928000   2.2684892  18.3566643  )
        42           C1  tau(  42) = (   5.1038000   3.3170275  17.3496619  )
        43           C1  tau(  43) = (   3.8283000   1.0698977  17.7805525  )
        44           C1  tau(  44) = (   4.0364000   4.0966065  16.5675810  )
        45           C1  tau(  45) = (   4.6011000   0.3055050  16.7204792  )
        46           C1  tau(  46) = (   4.6014000   5.1845640  15.6751027  )
        47           H1  tau(  47) = (   3.9667000   2.7515570  19.1168966  )
        48           H1  tau(  48) = (   5.8031000   2.8425597  16.6521415  )
        49           H1  tau(  49) = (   2.8509000   1.3696897  17.3890502  )
        50           H1  tau(  50) = (   3.4570000   3.4122121  15.9378493  )
        51           H1  tau(  51) = (   6.1796000   2.5491628  19.4754907  )
        52           H1  tau(  52) = (   5.3002000   4.7329983  18.6925274  )
        53           H1  tau(  53) = (  -2.3545199   8.7685617  18.5282522  )
        54           H1  tau(  54) = (   2.3883000   5.0602827  16.9540015  )
        55           H1  tau(  55) = (   4.7460000   0.1496879  14.7843694  )
        56           H1  tau(  56) = (   5.7393000   5.3508596  14.1022328  )

     number of k points=    10  Fermi-Dirac smearing, width (Ry)=  0.0073
                       cart. coord. in units 2pi/alat
        k(    1) = (   0.0000000   0.0000000   0.0000000), wk =   0.1250000
        k(    2) = (   0.0000000   0.0268344   0.0000000), wk =   0.2500000
        k(    3) = (   0.0000000  -0.0536689   0.0000000), wk =   0.1250000
        k(    4) = (   0.0232393   0.0402516   0.0000000), wk =   0.2500000
        k(    5) = (  -0.0232393   0.0134172   0.0000000), wk =   0.2500000
        k(    6) = (   0.0232393   0.0134172   0.0000000), wk =   0.2500000
        k(    7) = (   0.0464786  -0.0268344   0.0000000), wk =   0.1250000
        k(    8) = (  -0.0464786  -0.0268344   0.0000000), wk =   0.1250000
        k(    9) = (  -0.0232393   0.0402516   0.0000000), wk =   0.2500000
        k(   10) = (   0.0464786  -0.0000000   0.0000000), wk =   0.2500000

     Dense  grid:  2024909 G-vectors     FFT dimensions: ( 120, 120, 324)

     Smooth grid:   692451 G-vectors     FFT dimensions: (  90,  90, 225)

     Largest allocated arrays     est. size (Mb)     dimensions
        Kohn-Sham Wavefunctions        35.74 Mb     (    7251,  323)
        NL pseudopotentials            82.76 Mb     (    7251,  748)
        Each V/rho on FFT grid          5.93 Mb     (  388800)
        Each G-vector array             1.29 Mb     (  168746)
        G-vector shells                 0.42 Mb     (   55307)
     Largest temporary arrays     est. size (Mb)     dimensions
        Auxiliary wavefunctions       142.95 Mb     (    7251, 1292)
        Each subspace H/S matrix       25.47 Mb     (    1292, 1292)
        Each <psi_i|beta_j> matrix      3.69 Mb     (     748,  323)
        Arrays for rho mixing          47.46 Mb     (  388800,    8)

     Check: negative/imaginary core charge=   -0.000001    0.000000

     Initial potential from superposition of free atoms
     Check: negative starting charge=   -0.057966

     starting charge  625.98398, renormalised to  626.00000

     negative rho (up, down):  5.797E-02 0.000E+00
     Starting wfc are  386 randomized atomic wfcs
     Checking if some PAW data can be deallocated... 

     total cpu time spent up to now is      105.8 secs

     per-process dynamical memory:   631.2 Mb

     Self-consistent Calculation

     iteration #  1     ecut=    40.42 Ry     beta=0.07
     Davidson diagonalization with overlap
     ethr =  1.00E-02,  avg # of iterations =  2.6

     negative rho (up, down):  5.123E-02 0.000E+00

     total cpu time spent up to now is      382.7 secs

     total energy              =  -15383.05126981 Ry
     Harris-Foulkes estimate   =  -15383.27645385 Ry
     estimated scf accuracy    <       7.06286259 Ry

     iteration #  2     ecut=    40.42 Ry     beta=0.07
     Davidson diagonalization with overlap
     ethr =  1.13E-03,  avg # of iterations =  2.4

     negative rho (up, down):  2.586E-02 0.000E+00

     total cpu time spent up to now is      589.8 secs

     total energy              =  -15381.48162159 Ry
     Harris-Foulkes estimate   =  -15383.17711995 Ry
     estimated scf accuracy    <       6.09140140 Ry

     iteration #  3     ecut=    40.42 Ry     beta=0.07
     Davidson diagonalization with overlap
     ethr =  9.73E-04,  avg # of iterations =  4.3

     negative rho (up, down):  2.282E-02 0.000E+00

     total cpu time spent up to now is      823.4 secs

     total energy              =  -15381.89905466 Ry
     Harris-Foulkes estimate   =  -15382.02228423 Ry
     estimated scf accuracy    <       1.44414136 Ry

     iteration #  4     ecut=    40.42 Ry     beta=0.07
     Davidson diagonalization with overlap
     ethr =  2.31E-04,  avg # of iterations =  2.6

     negative rho (up, down):  2.258E-02 0.000E+00

     total cpu time spent up to now is     1031.1 secs

     total energy              =  -15381.97013907 Ry
     Harris-Foulkes estimate   =  -15381.95036615 Ry
     estimated scf accuracy    <       2.12742773 Ry

     iteration #  5     ecut=    40.42 Ry     beta=0.07
     Davidson diagonalization with overlap
     ethr =  2.31E-04,  avg # of iterations =  1.0

     negative rho (up, down):  1.605E-02 0.000E+00

     total cpu time spent up to now is     1230.1 secs

     total energy              =  -15381.74591750 Ry
     Harris-Foulkes estimate   =  -15381.98598701 Ry
     estimated scf accuracy    <       3.65951013 Ry

     iteration #  6     ecut=    40.42 Ry     beta=0.07
     Davidson diagonalization with overlap
     ethr =  2.31E-04,  avg # of iterations =  3.2

     negative rho (up, down):  1.561E-02 0.000E+00

     total cpu time spent up to now is     1443.7 secs

     total energy              =  -15381.82351200 Ry
     Harris-Foulkes estimate   =  -15381.83343150 Ry
     estimated scf accuracy    <       1.45547494 Ry

     iteration #  7     ecut=    40.42 Ry     beta=0.07
     Davidson diagonalization with overlap
     ethr =  2.31E-04,  avg # of iterations =  1.0

     negative rho (up, down):  1.261E-02 0.000E+00

     total cpu time spent up to now is     1641.7 secs

     total energy              =  -15381.71861444 Ry
     Harris-Foulkes estimate   =  -15381.82951234 Ry
     estimated scf accuracy    <       1.16708582 Ry

     iteration #  8     ecut=    40.42 Ry     beta=0.07
     Davidson diagonalization with overlap
     ethr =  1.86E-04,  avg # of iterations =  2.0

     negative rho (up, down):  1.028E-02 0.000E+00

     total cpu time spent up to now is     1848.1 secs

     total energy              =  -15381.73512336 Ry
     Harris-Foulkes estimate   =  -15381.75858067 Ry
     estimated scf accuracy    <       0.26668016 Ry

     iteration #  9     ecut=    40.42 Ry     beta=0.07
     Davidson diagonalization with overlap
     ethr =  4.26E-05,  avg # of iterations =  3.8

     negative rho (up, down):  6.960E-03 0.000E+00

     total cpu time spent up to now is     2062.7 secs

     total energy              =  -15381.71163144 Ry
     Harris-Foulkes estimate   =  -15381.74176388 Ry
     estimated scf accuracy    <       0.21669957 Ry

     iteration # 10     ecut=    40.42 Ry     beta=0.07
     Davidson diagonalization with overlap
     ethr =  3.46E-05,  avg # of iterations =  3.8

     negative rho (up, down):  7.093E-03 0.000E+00

     total cpu time spent up to now is     2286.6 secs

     total energy              =  -15381.72390934 Ry
     Harris-Foulkes estimate   =  -15381.72601438 Ry
     estimated scf accuracy    <       0.20294990 Ry

     iteration # 11     ecut=    40.42 Ry     beta=0.07
     Davidson diagonalization with overlap
     ethr =  3.24E-05,  avg # of iterations =  1.0

     negative rho (up, down):  4.887E-03 0.000E+00

     total cpu time spent up to now is     2485.9 secs

     total energy              =  -15381.70708230 Ry
     Harris-Foulkes estimate   =  -15381.72532106 Ry
     estimated scf accuracy    <       0.19492635 Ry

     iteration # 12     ecut=    40.42 Ry     beta=0.07
     Davidson diagonalization with overlap
     ethr =  3.11E-05,  avg # of iterations =  4.2

     negative rho (up, down):  4.157E-03 0.000E+00

     total cpu time spent up to now is     2710.1 secs

     total energy              =  -15381.70906799 Ry
     Harris-Foulkes estimate   =  -15381.72869349 Ry
     estimated scf accuracy    <       0.80067099 Ry

     iteration # 13     ecut=    40.42 Ry     beta=0.07
     Davidson diagonalization with overlap
     ethr =  3.11E-05,  avg # of iterations =  1.0

     negative rho (up, down):  3.545E-03 0.000E+00

     total cpu time spent up to now is     2909.6 secs

     total energy              =  -15381.70560434 Ry
     Harris-Foulkes estimate   =  -15381.71279181 Ry
     estimated scf accuracy    <       0.42967361 Ry

     iteration # 14     ecut=    40.42 Ry     beta=0.07
     Davidson diagonalization with overlap
     ethr =  3.11E-05,  avg # of iterations =  1.0

     negative rho (up, down):  3.139E-03 0.000E+00

     total cpu time spent up to now is     3107.9 secs

     total energy              =  -15381.69205296 Ry
     Harris-Foulkes estimate   =  -15381.70648462 Ry
     estimated scf accuracy    <       0.31159552 Ry

     iteration # 15     ecut=    40.42 Ry     beta=0.07
     Davidson diagonalization with overlap
     ethr =  3.11E-05,  avg # of iterations =  3.6

     negative rho (up, down):  4.170E-03 0.000E+00

     total cpu time spent up to now is     3320.1 secs

     total energy              =  -15381.69717555 Ry
     Harris-Foulkes estimate   =  -15381.69768178 Ry
     estimated scf accuracy    <       0.09395488 Ry

     iteration # 16     ecut=    40.42 Ry     beta=0.07
     Davidson diagonalization with overlap
     ethr =  1.50E-05,  avg # of iterations =  1.0

     negative rho (up, down):  8.879E-03 0.000E+00

     total cpu time spent up to now is     3519.2 secs

     total energy              =  -15381.69101695 Ry
     Harris-Foulkes estimate   =  -15381.69794861 Ry
     estimated scf accuracy    <       0.11273606 Ry

     iteration # 17     ecut=    40.42 Ry     beta=0.07
     Davidson diagonalization with overlap
     ethr =  1.50E-05,  avg # of iterations =  2.1

     negative rho (up, down):  1.737E-02 0.000E+00

     total cpu time spent up to now is     3724.5 secs

     total energy              =  -15381.69279101 Ry
     Harris-Foulkes estimate   =  -15381.69276199 Ry
     estimated scf accuracy    <       0.06352548 Ry

     iteration # 18     ecut=    40.42 Ry     beta=0.07
     Davidson diagonalization with overlap
     c_bands:  5 eigenvalues not converged
     ethr =  1.01E-05,  avg # of iterations =  3.7

     negative rho (up, down):  1.422E-02 0.000E+00

     total cpu time spent up to now is     3938.6 secs

     total energy              =  -15381.68994762 Ry
     Harris-Foulkes estimate   =  -15381.69341904 Ry
     estimated scf accuracy    <       0.06649817 Ry

     iteration # 19     ecut=    40.42 Ry     beta=0.07
     Davidson diagonalization with overlap
     ethr =  1.01E-05,  avg # of iterations =  2.8

     negative rho (up, down):  3.458E-02 0.000E+00

     total cpu time spent up to now is     4146.9 secs

     total energy              =  -15381.68687674 Ry
     Harris-Foulkes estimate   =  -15381.69087746 Ry
     estimated scf accuracy    <       0.04672226 Ry

     iteration # 20     ecut=    40.42 Ry     beta=0.07
     Davidson diagonalization with overlap
     c_bands:  1 eigenvalues not converged
     ethr =  7.46E-06,  avg # of iterations =  8.7

     negative rho (up, down):  8.231E-02 0.000E+00

     total cpu time spent up to now is     4390.1 secs

     total energy              =  -15381.68751023 Ry
     Harris-Foulkes estimate   =  -15381.68887790 Ry
     estimated scf accuracy    <       0.02945276 Ry

     iteration # 21     ecut=    40.42 Ry     beta=0.07
     Davidson diagonalization with overlap
     ethr =  4.70E-06,  avg # of iterations =  3.6

     negative rho (up, down):  1.688E-01 0.000E+00

     total cpu time spent up to now is     4602.2 secs

     total energy              =  -15381.68717641 Ry
     Harris-Foulkes estimate   =  -15381.68803135 Ry
     estimated scf accuracy    <       0.02419733 Ry

     iteration # 22     ecut=    40.42 Ry     beta=0.07
     Davidson diagonalization with overlap
     ethr =  3.87E-06,  avg # of iterations =  3.4

     negative rho (up, down):  1.466E-01 0.000E+00

     total cpu time spent up to now is     4821.1 secs

     total energy              =  -15381.68397556 Ry
     Harris-Foulkes estimate   =  -15381.68844528 Ry
     estimated scf accuracy    <       0.01879434 Ry

     iteration # 23     ecut=    40.42 Ry     beta=0.07
     Davidson diagonalization with overlap
     ethr =  3.00E-06,  avg # of iterations =  3.0

     negative rho (up, down):  1.479E-01 0.000E+00

     total cpu time spent up to now is     5039.8 secs

     total energy              =  -15381.68463092 Ry
     Harris-Foulkes estimate   =  -15381.68538986 Ry
     estimated scf accuracy    <       0.01371883 Ry

     iteration # 24     ecut=    40.42 Ry     beta=0.07
     Davidson diagonalization with overlap
     ethr =  2.19E-06,  avg # of iterations =  6.3

     negative rho (up, down):  1.485E-01 0.000E+00

     total cpu time spent up to now is     5267.0 secs

     total energy              =  -15381.68402612 Ry
     Harris-Foulkes estimate   =  -15381.68491027 Ry
     estimated scf accuracy    <       0.01188148 Ry

     iteration # 25     ecut=    40.42 Ry     beta=0.07
     Davidson diagonalization with overlap
     ethr =  1.90E-06,  avg # of iterations =  3.0

     negative rho (up, down):  1.577E-01 0.000E+00

     total cpu time spent up to now is     5475.1 secs

     total energy              =  -15381.68354112 Ry
     Harris-Foulkes estimate   =  -15381.68418676 Ry
     estimated scf accuracy    <       0.01017901 Ry

     iteration # 26     ecut=    40.42 Ry     beta=0.07
     Davidson diagonalization with overlap
     c_bands:  4 eigenvalues not converged
     c_bands:  1 eigenvalues not converged
     ethr =  1.63E-06,  avg # of iterations = 13.5

     negative rho (up, down):  1.483E-01 0.000E+00

     total cpu time spent up to now is     5746.4 secs

     total energy              =  -15381.68239394 Ry
     Harris-Foulkes estimate   =  -15381.68405185 Ry
     estimated scf accuracy    <       0.00882884 Ry

     iteration # 27     ecut=    40.42 Ry     beta=0.07
     Davidson diagonalization with overlap
     ethr =  1.41E-06,  avg # of iterations =  3.1

     negative rho (up, down):  1.052E-01 0.000E+00

     total cpu time spent up to now is     5956.9 secs

     total energy              =  -15381.68013582 Ry
     Harris-Foulkes estimate   =  -15381.68261168 Ry
     estimated scf accuracy    <       0.00637434 Ry

     iteration # 28     ecut=    40.42 Ry     beta=0.07
     Davidson diagonalization with overlap
     ethr =  1.02E-06,  avg # of iterations =  3.1

     negative rho (up, down):  9.746E-02 0.000E+00

     total cpu time spent up to now is     6172.2 secs

     total energy              =  -15381.68000492 Ry
     Harris-Foulkes estimate   =  -15381.68041366 Ry
     estimated scf accuracy    <       0.00442733 Ry

     iteration # 29     ecut=    40.42 Ry     beta=0.07
     Davidson diagonalization with overlap
     ethr =  7.07E-07,  avg # of iterations =  3.9

     negative rho (up, down):  7.901E-02 0.000E+00

     total cpu time spent up to now is     6386.1 secs

     total energy              =  -15381.67860375 Ry
     Harris-Foulkes estimate   =  -15381.68007193 Ry
     estimated scf accuracy    <       0.00385481 Ry

     iteration # 30     ecut=    40.42 Ry     beta=0.07
     Davidson diagonalization with overlap
     c_bands:  1 eigenvalues not converged
     c_bands:  1 eigenvalues not converged
     ethr =  6.16E-07,  avg # of iterations =  6.5

     negative rho (up, down):  7.847E-02 0.000E+00

     total cpu time spent up to now is     6620.0 secs

     total energy              =  -15381.67875568 Ry
     Harris-Foulkes estimate   =  -15381.67885606 Ry
     estimated scf accuracy    <       0.00179750 Ry

     iteration # 31     ecut=    40.42 Ry     beta=0.07
     Davidson diagonalization with overlap
     ethr =  2.87E-07,  avg # of iterations =  3.5

     negative rho (up, down):  6.862E-02 0.000E+00

     total cpu time spent up to now is     6830.4 secs

     total energy              =  -15381.67841373 Ry
     Harris-Foulkes estimate   =  -15381.67878428 Ry
     estimated scf accuracy    <       0.00155017 Ry

     iteration # 32     ecut=    40.42 Ry     beta=0.07
     Davidson diagonalization with overlap
     ethr =  2.48E-07,  avg # of iterations =  4.1

     negative rho (up, down):  6.945E-02 0.000E+00

     total cpu time spent up to now is     7052.9 secs

     total energy              =  -15381.67838517 Ry
     Harris-Foulkes estimate   =  -15381.67851004 Ry
     estimated scf accuracy    <       0.00104736 Ry

     iteration # 33     ecut=    40.42 Ry     beta=0.07
     Davidson diagonalization with overlap
     c_bands:  1 eigenvalues not converged
     ethr =  1.67E-07,  avg # of iterations =  6.7

     negative rho (up, down):  6.485E-02 0.000E+00

     total cpu time spent up to now is     7288.1 secs

     total energy              =  -15381.67832241 Ry
     Harris-Foulkes estimate   =  -15381.67842790 Ry
     estimated scf accuracy    <       0.00076058 Ry

     iteration # 34     ecut=    40.42 Ry     beta=0.07
     Davidson diagonalization with overlap
     ethr =  1.21E-07,  avg # of iterations =  3.1

     negative rho (up, down):  5.772E-02 0.000E+00

     total cpu time spent up to now is     7497.2 secs

     total energy              =  -15381.67819731 Ry
     Harris-Foulkes estimate   =  -15381.67833206 Ry
     estimated scf accuracy    <       0.00063674 Ry

     iteration # 35     ecut=    40.42 Ry     beta=0.07
     Davidson diagonalization with overlap
     ethr =  1.02E-07,  avg # of iterations =  3.4

     negative rho (up, down):  5.735E-02 0.000E+00

     total cpu time spent up to now is     7947.3 secs

     total energy              =  -15381.67816656 Ry
     Harris-Foulkes estimate   =  -15381.67820822 Ry
     estimated scf accuracy    <       0.00049971 Ry

     iteration # 36     ecut=    40.42 Ry     beta=0.07
     Davidson diagonalization with overlap
     c_bands:  1 eigenvalues not converged
     ethr =  7.98E-08,  avg # of iterations =  5.8

     negative rho (up, down):  6.409E-02 0.000E+00

     total cpu time spent up to now is     8780.2 secs

     total energy              =  -15381.67814692 Ry
     Harris-Foulkes estimate   =  -15381.67818483 Ry
     estimated scf accuracy    <       0.00034695 Ry

     iteration # 37     ecut=    40.42 Ry     beta=0.07
     Davidson diagonalization with overlap
     c_bands:  1 eigenvalues not converged
     ethr =  5.54E-08,  avg # of iterations =  6.9

     negative rho (up, down):  6.351E-02 0.000E+00

     total cpu time spent up to now is     9049.4 secs

     total energy              =  -15381.67816027 Ry
     Harris-Foulkes estimate   =  -15381.67817390 Ry
     estimated scf accuracy    <       0.00016076 Ry

     iteration # 38     ecut=    40.42 Ry     beta=0.07
     Davidson diagonalization with overlap
     c_bands:  1 eigenvalues not converged
     c_bands:  1 eigenvalues not converged
     c_bands:  1 eigenvalues not converged
     ethr =  2.57E-08,  avg # of iterations =  8.4

     negative rho (up, down):  6.342E-02 0.000E+00

     total cpu time spent up to now is     9288.2 secs

     total energy              =  -15381.67815769 Ry
     Harris-Foulkes estimate   =  -15381.67816492 Ry
     estimated scf accuracy    <       0.00013273 Ry

     iteration # 39     ecut=    40.42 Ry     beta=0.07
     Davidson diagonalization with overlap
     c_bands:  5 eigenvalues not converged
     c_bands:  1 eigenvalues not converged
     ethr =  2.12E-08,  avg # of iterations =  6.7

     negative rho (up, down):  6.374E-02 0.000E+00

     total cpu time spent up to now is     9525.1 secs

     total energy              =  -15381.67815742 Ry
     Harris-Foulkes estimate   =  -15381.67815993 Ry
     estimated scf accuracy    <       0.00012008 Ry

     iteration # 40     ecut=    40.42 Ry     beta=0.07
     Davidson diagonalization with overlap
     c_bands:  1 eigenvalues not converged
     c_bands:  2 eigenvalues not converged
     ethr =  1.92E-08,  avg # of iterations =  9.5

     negative rho (up, down):  6.389E-02 0.000E+00

     total cpu time spent up to now is     9780.9 secs

     total energy              =  -15381.67815233 Ry
     Harris-Foulkes estimate   =  -15381.67815915 Ry
     estimated scf accuracy    <       0.00010462 Ry

     iteration # 41     ecut=    40.42 Ry     beta=0.07
     Davidson diagonalization with overlap
     c_bands:  1 eigenvalues not converged
     c_bands:  1 eigenvalues not converged
     ethr =  1.67E-08,  avg # of iterations =  7.5

     negative rho (up, down):  6.508E-02 0.000E+00

     total cpu time spent up to now is    10005.3 secs

     total energy              =  -15381.67814402 Ry
     Harris-Foulkes estimate   =  -15381.67815384 Ry
     estimated scf accuracy    <       0.00008825 Ry

     iteration # 42     ecut=    40.42 Ry     beta=0.07
     Davidson diagonalization with overlap
     c_bands:  1 eigenvalues not converged
     c_bands:  1 eigenvalues not converged
     c_bands:  5 eigenvalues not converged
     ethr =  1.41E-08,  avg # of iterations =  7.4

     negative rho (up, down):  6.597E-02 0.000E+00

     total cpu time spent up to now is    10236.7 secs

     total energy              =  -15381.67814333 Ry
     Harris-Foulkes estimate   =  -15381.67814765 Ry
     estimated scf accuracy    <       0.00006207 Ry

     iteration # 43     ecut=    40.42 Ry     beta=0.07
     Davidson diagonalization with overlap
     c_bands:  1 eigenvalues not converged
     c_bands:  1 eigenvalues not converged
     ethr =  9.91E-09,  avg # of iterations =  8.0

     negative rho (up, down):  6.565E-02 0.000E+00

     total cpu time spent up to now is    10466.2 secs

     total energy              =  -15381.67814144 Ry
     Harris-Foulkes estimate   =  -15381.67814506 Ry
     estimated scf accuracy    <       0.00004509 Ry

     iteration # 44     ecut=    40.42 Ry     beta=0.07
     Davidson diagonalization with overlap
     c_bands:  2 eigenvalues not converged
     c_bands:  2 eigenvalues not converged
     c_bands:  2 eigenvalues not converged
     ethr =  7.20E-09,  avg # of iterations =  6.7

     negative rho (up, down):  6.584E-02 0.000E+00

     total cpu time spent up to now is    10688.6 secs

     total energy              =  -15381.67813391 Ry
     Harris-Foulkes estimate   =  -15381.67814189 Ry
     estimated scf accuracy    <       0.00003946 Ry

     iteration # 45     ecut=    40.42 Ry     beta=0.07
     Davidson diagonalization with overlap
     c_bands:  1 eigenvalues not converged
     c_bands:  1 eigenvalues not converged
     c_bands:  2 eigenvalues not converged
     c_bands:  1 eigenvalues not converged
     ethr =  6.30E-09,  avg # of iterations = 10.4

     negative rho (up, down):  6.640E-02 0.000E+00

     total cpu time spent up to now is    10934.2 secs

     total energy              =  -15381.67813234 Ry
     Harris-Foulkes estimate   =  -15381.67813542 Ry
     estimated scf accuracy    <       0.00002591 Ry

     iteration # 46     ecut=    40.42 Ry     beta=0.07
     Davidson diagonalization with overlap
     c_bands:  1 eigenvalues not converged
     c_bands:  1 eigenvalues not converged
     c_bands:  2 eigenvalues not converged
     ethr =  4.14E-09,  avg # of iterations =  8.9

     negative rho (up, down):  6.634E-02 0.000E+00

     total cpu time spent up to now is    11172.8 secs

     total energy              =  -15381.67813291 Ry
     Harris-Foulkes estimate   =  -15381.67813324 Ry
     estimated scf accuracy    <       0.00002009 Ry

     iteration # 47     ecut=    40.42 Ry     beta=0.07
     Davidson diagonalization with overlap
     c_bands:  1 eigenvalues not converged
     c_bands:  1 eigenvalues not converged
     c_bands:  2 eigenvalues not converged
     ethr =  3.21E-09,  avg # of iterations =  6.7

     negative rho (up, down):  6.603E-02 0.000E+00

     total cpu time spent up to now is    11394.9 secs

     total energy              =  -15381.67813157 Ry
     Harris-Foulkes estimate   =  -15381.67813305 Ry
     estimated scf accuracy    <       0.00001843 Ry

     iteration # 48     ecut=    40.42 Ry     beta=0.07
     Davidson diagonalization with overlap
     c_bands:  1 eigenvalues not converged
     c_bands:  3 eigenvalues not converged
     c_bands:  2 eigenvalues not converged
     c_bands:  2 eigenvalues not converged
     ethr =  2.94E-09,  avg # of iterations = 10.8

     negative rho (up, down):  6.645E-02 0.000E+00

     total cpu time spent up to now is    11640.8 secs

     total energy              =  -15381.67813198 Ry
     Harris-Foulkes estimate   =  -15381.67813237 Ry
     estimated scf accuracy    <       0.00001246 Ry

     iteration # 49     ecut=    40.42 Ry     beta=0.07
     Davidson diagonalization with overlap
     c_bands:  4 eigenvalues not converged
     c_bands:  1 eigenvalues not converged
     c_bands:  1 eigenvalues not converged
     ethr =  1.99E-09,  avg # of iterations =  9.9

     negative rho (up, down):  6.684E-02 0.000E+00

     total cpu time spent up to now is    11879.2 secs

     total energy              =  -15381.67813130 Ry
     Harris-Foulkes estimate   =  -15381.67813213 Ry
     estimated scf accuracy    <       0.00001067 Ry

     iteration # 50     ecut=    40.42 Ry     beta=0.07
     Davidson diagonalization with overlap
     c_bands:  4 eigenvalues not converged
     c_bands:  2 eigenvalues not converged
     c_bands:  2 eigenvalues not converged
     ethr =  1.70E-09,  avg # of iterations =  8.2

     negative rho (up, down):  6.713E-02 0.000E+00

     total cpu time spent up to now is    12109.3 secs

     total energy              =  -15381.67813090 Ry
     Harris-Foulkes estimate   =  -15381.67813152 Ry
     estimated scf accuracy    <       0.00000787 Ry

     iteration # 51     ecut=    40.42 Ry     beta=0.07
     Davidson diagonalization with overlap
     c_bands:  1 eigenvalues not converged
     c_bands:  1 eigenvalues not converged
     ethr =  1.26E-09,  avg # of iterations =  7.4

     negative rho (up, down):  6.719E-02 0.000E+00

     total cpu time spent up to now is    12336.2 secs

     total energy              =  -15381.67813095 Ry
     Harris-Foulkes estimate   =  -15381.67813111 Ry
     estimated scf accuracy    <       0.00000625 Ry

     iteration # 52     ecut=    40.42 Ry     beta=0.07
     Davidson diagonalization with overlap
     c_bands:  3 eigenvalues not converged
     c_bands:  1 eigenvalues not converged
     c_bands:  2 eigenvalues not converged
     c_bands:  2 eigenvalues not converged
     ethr =  9.98E-10,  avg # of iterations = 10.7

     negative rho (up, down):  6.703E-02 0.000E+00

     total cpu time spent up to now is    12590.5 secs

     total energy              =  -15381.67813104 Ry
     Harris-Foulkes estimate   =  -15381.67813124 Ry
     estimated scf accuracy    <       0.00000467 Ry

     iteration # 53     ecut=    40.42 Ry     beta=0.07
     Davidson diagonalization with overlap
     c_bands:  2 eigenvalues not converged
     c_bands:  2 eigenvalues not converged
     ethr =  7.46E-10,  avg # of iterations =  6.5

     negative rho (up, down):  6.669E-02 0.000E+00

     total cpu time spent up to now is    12813.8 secs

     total energy              =  -15381.67813074 Ry
     Harris-Foulkes estimate   =  -15381.67813109 Ry
     estimated scf accuracy    <       0.00000420 Ry

     iteration # 54     ecut=    40.42 Ry     beta=0.07
     Davidson diagonalization with overlap
     c_bands:  2 eigenvalues not converged
     c_bands:  2 eigenvalues not converged
     ethr =  6.71E-10,  avg # of iterations =  5.2

     negative rho (up, down):  6.669E-02 0.000E+00

     total cpu time spent up to now is    13028.7 secs

     total energy              =  -15381.67813092 Ry
     Harris-Foulkes estimate   =  -15381.67813083 Ry
     estimated scf accuracy    <       0.00000369 Ry

     iteration # 55     ecut=    40.42 Ry     beta=0.07
     Davidson diagonalization with overlap
     c_bands:  1 eigenvalues not converged
     ethr =  5.90E-10,  avg # of iterations =  4.3

     negative rho (up, down):  6.674E-02 0.000E+00

     total cpu time spent up to now is    13239.5 secs

     total energy              =  -15381.67813085 Ry
     Harris-Foulkes estimate   =  -15381.67813094 Ry
     estimated scf accuracy    <       0.00000393 Ry

     iteration # 56     ecut=    40.42 Ry     beta=0.07
     Davidson diagonalization with overlap
     c_bands:  1 eigenvalues not converged
     ethr =  5.90E-10,  avg # of iterations =  3.7

     negative rho (up, down):  6.688E-02 0.000E+00

     total cpu time spent up to now is    13447.0 secs

     total energy              =  -15381.67813090 Ry
     Harris-Foulkes estimate   =  -15381.67813092 Ry
     estimated scf accuracy    <       0.00000329 Ry

     iteration # 57     ecut=    40.42 Ry     beta=0.07
     Davidson diagonalization with overlap
     c_bands:  1 eigenvalues not converged
     ethr =  5.26E-10,  avg # of iterations =  2.9

     negative rho (up, down):  6.668E-02 0.000E+00

     total cpu time spent up to now is    13649.2 secs

     total energy              =  -15381.67813067 Ry
     Harris-Foulkes estimate   =  -15381.67813093 Ry
     estimated scf accuracy    <       0.00000297 Ry

     iteration # 58     ecut=    40.42 Ry     beta=0.07
     Davidson diagonalization with overlap
     c_bands:  5 eigenvalues not converged
     c_bands:  2 eigenvalues not converged
     ethr =  4.75E-10,  avg # of iterations =  6.0

     negative rho (up, down):  6.652E-02 0.000E+00

     total cpu time spent up to now is    13874.4 secs

     total energy              =  -15381.67813049 Ry
     Harris-Foulkes estimate   =  -15381.67813075 Ry
     estimated scf accuracy    <       0.00000230 Ry

     iteration # 59     ecut=    40.42 Ry     beta=0.07
     Davidson diagonalization with overlap
     c_bands:  1 eigenvalues not converged
     c_bands:  2 eigenvalues not converged
     c_bands:  1 eigenvalues not converged
     c_bands:  1 eigenvalues not converged
     c_bands:  1 eigenvalues not converged
     c_bands:  2 eigenvalues not converged
     c_bands:  1 eigenvalues not converged
     ethr =  3.67E-10,  avg # of iterations = 17.4

     negative rho (up, down):  6.659E-02 0.000E+00

     total cpu time spent up to now is    14156.6 secs

     total energy              =  -15381.67813059 Ry
     Harris-Foulkes estimate   =  -15381.67813061 Ry
     estimated scf accuracy    <       0.00000190 Ry

     iteration # 60     ecut=    40.42 Ry     beta=0.07
     Davidson diagonalization with overlap
     c_bands:  1 eigenvalues not converged
     c_bands:  1 eigenvalues not converged
     ethr =  3.04E-10,  avg # of iterations =  8.3

     negative rho (up, down):  6.661E-02 0.000E+00

     total cpu time spent up to now is    14385.2 secs

     total energy              =  -15381.67813061 Ry
     Harris-Foulkes estimate   =  -15381.67813061 Ry
     estimated scf accuracy    <       0.00000162 Ry

     iteration # 61     ecut=    40.42 Ry     beta=0.07
     Davidson diagonalization with overlap
     c_bands:  1 eigenvalues not converged
     ethr =  2.59E-10,  avg # of iterations =  3.2

     negative rho (up, down):  6.646E-02 0.000E+00

     total cpu time spent up to now is    14589.3 secs

     total energy              =  -15381.67813050 Ry
     Harris-Foulkes estimate   =  -15381.67813061 Ry
     estimated scf accuracy    <       0.00000160 Ry

     iteration # 62     ecut=    40.42 Ry     beta=0.07
     Davidson diagonalization with overlap
     c_bands:  1 eigenvalues not converged
     ethr =  2.55E-10,  avg # of iterations =  3.3

     negative rho (up, down):  6.623E-02 0.000E+00

     total cpu time spent up to now is    14793.7 secs

     total energy              =  -15381.67813024 Ry
     Harris-Foulkes estimate   =  -15381.67813051 Ry
     estimated scf accuracy    <       0.00000135 Ry

     iteration # 63     ecut=    40.42 Ry     beta=0.07
     Davidson diagonalization with overlap
     c_bands:  1 eigenvalues not converged
     ethr =  2.15E-10,  avg # of iterations =  4.3

     negative rho (up, down):  6.626E-02 0.000E+00

     total cpu time spent up to now is    15014.5 secs

     total energy              =  -15381.67813001 Ry
     Harris-Foulkes estimate   =  -15381.67813029 Ry
     estimated scf accuracy    <       0.00000112 Ry

     iteration # 64     ecut=    40.42 Ry     beta=0.07
     Davidson diagonalization with overlap
     c_bands:  1 eigenvalues not converged
     ethr =  1.78E-10,  avg # of iterations =  4.7

     negative rho (up, down):  6.624E-02 0.000E+00

     total cpu time spent up to now is    15233.0 secs

     total energy              =  -15381.67812998 Ry
     Harris-Foulkes estimate   =  -15381.67813007 Ry
     estimated scf accuracy    <       0.00000067 Ry

     iteration # 65     ecut=    40.42 Ry     beta=0.07
     Davidson diagonalization with overlap
     c_bands:  1 eigenvalues not converged
     c_bands:  2 eigenvalues not converged
     ethr =  1.07E-10,  avg # of iterations =  5.5

     negative rho (up, down):  6.633E-02 0.000E+00

     total cpu time spent up to now is    15451.3 secs

     total energy              =  -15381.67812981 Ry
     Harris-Foulkes estimate   =  -15381.67812999 Ry
     estimated scf accuracy    <       0.00000057 Ry

     iteration # 66     ecut=    40.42 Ry     beta=0.07
     Davidson diagonalization with overlap
     c_bands:  2 eigenvalues not converged
     c_bands:  1 eigenvalues not converged
     c_bands:  2 eigenvalues not converged
     ethr =  9.03E-11,  avg # of iterations =  8.1

     negative rho (up, down):  6.636E-02 0.000E+00

     total cpu time spent up to now is    15694.3 secs

     total energy              =  -15381.67812979 Ry
     Harris-Foulkes estimate   =  -15381.67812985 Ry
     estimated scf accuracy    <       0.00000038 Ry

     iteration # 67     ecut=    40.42 Ry     beta=0.07
     Davidson diagonalization with overlap
     c_bands:  1 eigenvalues not converged
     c_bands:  1 eigenvalues not converged
     c_bands:  2 eigenvalues not converged
     ethr =  6.08E-11,  avg # of iterations = 12.5

     negative rho (up, down):  6.670E-02 0.000E+00

     total cpu time spent up to now is    15935.7 secs

     End of self-consistent calculation

          k = 0.0000 0.0000 0.0000 ( 86627 PWs)   bands (ev):

   -79.2995 -79.2584 -79.2570 -79.2566 -79.2556 -79.2543 -79.2494 -79.2440
   -79.2173 -79.2157 -79.2155 -79.2143 -79.2132 -79.2114 -79.2090 -79.2086
   -79.2083 -79.2074 -79.2058 -79.2056 -79.2053 -79.2014 -79.1998 -79.1902
   -79.1901 -79.1892 -79.1886 -79.1876 -79.1871 -79.1853 -79.1824 -79.1621
   -47.4426 -47.4421 -47.4416 -47.3910 -47.3900 -47.3896 -47.3321 -47.3316
   -47.3310 -47.3305 -47.3296 -47.3290 -47.3032 -47.3025 -47.3018 -47.3009
   -47.3006 -47.3001 -47.1705 -47.1694 -47.1686 -47.1681 -47.1673 -47.1658
   -47.1555 -47.1497 -47.1490 -47.1486 -47.1470 -47.1460 -47.1443 -47.1206
   -47.1193 -47.1185 -47.1176 -47.1162 -47.1151 -47.0556 -47.0546 -47.0540
   -47.0534 -47.0511 -47.0502 -47.0077 -47.0060 -47.0059 -47.0055 -47.0047
   -47.0045 -47.0035 -47.0025 -47.0002 -46.9368 -46.9365 -46.9359 -46.9348
   -46.9335 -46.9325 -46.9304 -46.9284 -46.9270 -46.9268 -46.9252 -46.9235
   -46.9176 -46.9154 -46.9136 -46.9123 -46.9110 -46.9067 -46.8646 -46.8642
   -46.8632 -46.8622 -46.8608 -46.8595 -46.8547 -46.8545 -46.8143 -46.8114
   -46.8105 -46.8077 -46.8067 -46.8064 -46.8044 -46.8021 -46.8014 -46.7990
   -46.7973 -46.7749 -46.7727 -46.7705 -46.7702 -46.7702 -46.7677 -46.7539
   -23.6282 -23.2714 -22.0061 -21.5625 -21.3466 -21.1062 -20.7189 -20.5629
   -15.3413 -14.4191 -12.9296 -11.8305 -11.1000 -10.2071  -9.2706  -8.9417
    -8.5590  -8.3277  -7.8401  -7.5567  -7.5182  -7.1358  -7.1280  -7.0143
    -6.6804  -6.4304  -6.1963  -6.0650  -6.0625  -6.0611  -5.9069  -5.7937
    -5.7284  -5.7264  -5.7259  -5.7252  -5.7222  -5.7199  -5.7188  -5.7141
    -5.6327  -5.5426  -5.3658  -5.3640  -5.3611  -5.1847  -5.1782  -5.1781
    -5.1767  -5.1760  -5.1734  -5.1328  -5.1118  -5.1106  -5.1103  -5.1095
    -5.1067  -5.0983  -4.6762  -4.6740  -4.6727  -4.6715  -4.6705  -4.6670
    -4.5986  -4.5953  -4.5948  -4.5930  -4.5926  -4.5919  -4.5433  -4.4125
    -4.4113  -4.4092  -4.4090  -4.4059  -4.4022  -4.0792  -3.9763  -3.8765
    -3.8748  -3.8255  -3.7399  -3.5868  -3.5820  -3.5810  -3.5795  -3.5781
    -3.5770  -3.5681  -3.5214  -3.5059  -3.5028  -3.4990  -3.4986  -3.4932
    -3.4506  -3.3709  -3.3131  -3.3127  -3.2561  -3.2481  -3.2475  -3.2460
    -3.2419  -3.2367  -3.1375  -3.1372  -3.0942  -3.0851  -3.0816  -3.0806
    -3.0802  -3.0774  -3.0370  -3.0341  -3.0248  -3.0240  -3.0212  -2.9903
    -2.7774  -2.7704  -2.7672  -2.7647  -2.7642  -2.7589  -2.7307  -2.7101
    -2.6999  -2.6984  -2.6962  -2.6727  -2.6271  -2.5977  -2.5944  -2.5934
    -2.4874  -2.4110  -2.3492  -2.3480  -2.3471  -2.3457  -2.3446  -2.3441
    -2.2098  -1.9653  -1.8827  -1.8752  -1.8731  -1.8637  -1.8348  -1.8328
    -1.8314  -1.8310  -1.8298  -1.8295  -1.8269  -1.8098  -1.6635  -1.6619
    -1.6510  -1.5448  -1.5316  -1.3633  -1.3612  -1.3590  -1.3568  -1.3555
    -1.3548  -1.3534  -1.3524  -1.3304  -1.3298  -1.3283  -1.3279  -1.3266
    -1.3263  -1.1920  -1.1775  -1.1727  -1.1715  -1.1700  -1.1482  -1.0770
    -1.0742  -1.0739  -0.6699  -0.6683  -0.6666  -0.4383  -0.4339  -0.4321
    -0.4303  -0.4295  -0.4290

          k = 0.0000 0.0268 0.0000 ( 86514 PWs)   bands (ev):

   -79.2963 -79.2726 -79.2638 -79.2609 -79.2464 -79.2432 -79.2417 -79.2374
   -79.2252 -79.2208 -79.2195 -79.2178 -79.2167 -79.2109 -79.2095 -79.2087
   -79.2071 -79.2069 -79.2053 -79.2034 -79.2010 -79.1975 -79.1958 -79.1932
   -79.1910 -79.1902 -79.1890 -79.1881 -79.1872 -79.1852 -79.1820 -79.1621
   -47.4286 -47.4283 -47.4199 -47.3776 -47.3773 -47.3711 -47.3544 -47.3541
   -47.3374 -47.3354 -47.3155 -47.3151 -47.3083 -47.3080 -47.3016 -47.2998
   -47.2825 -47.2821 -47.2702 -47.2353 -47.2200 -47.2191 -47.1943 -47.1936
   -47.1674 -47.1648 -47.1518 -47.1400 -47.1386 -47.1285 -47.1063 -47.1044
   -47.1008 -47.0992 -47.0982 -47.0972 -47.0640 -47.0633 -47.0440 -47.0302
   -47.0288 -47.0245 -47.0232 -47.0079 -47.0043 -47.0021 -46.9971 -46.9965
   -46.9936 -46.9921 -46.9913 -46.9643 -46.9548 -46.9525 -46.9516 -46.9485
   -46.9468 -46.9391 -46.9381 -46.9345 -46.9211 -46.9197 -46.9191 -46.9179
   -46.9161 -46.9132 -46.9119 -46.9020 -46.8900 -46.8864 -46.8858 -46.8844
   -46.8839 -46.8806 -46.8612 -46.8576 -46.8557 -46.8362 -46.8231 -46.8219
   -46.8179 -46.8108 -46.8091 -46.8086 -46.8068 -46.8030 -46.8007 -46.7904
   -46.7876 -46.7800 -46.7769 -46.7742 -46.7709 -46.7688 -46.7661 -46.7543
   -23.6282 -23.2714 -22.0061 -21.5625 -21.3466 -21.1062 -20.7189 -20.5629
   -15.3413 -14.4191 -12.9296 -11.8305 -11.1000 -10.2070  -9.2708  -8.9412
    -8.5586  -8.3279  -7.8396  -7.5583  -7.5182  -7.1273  -7.0162  -6.9963
    -6.6807  -6.4312  -6.0927  -6.0712  -6.0100  -5.9530  -5.9499  -5.9001
    -5.7799  -5.7706  -5.7373  -5.6971  -5.6490  -5.6063  -5.6015  -5.5818
    -5.5785  -5.5329  -5.3284  -5.3133  -5.3101  -5.3041  -5.2949  -5.2652
    -5.2639  -5.1738  -5.1726  -5.1314  -5.1146  -5.1136  -5.1007  -5.0982
    -5.0866  -5.0825  -4.8989  -4.8981  -4.8430  -4.8414  -4.7939  -4.7693
    -4.7675  -4.6879  -4.6870  -4.6390  -4.6382  -4.6076  -4.6012  -4.5761
    -4.5716  -4.5303  -4.2189  -4.2152  -4.0797  -4.0004  -3.9627  -3.8357
    -3.8324  -3.8013  -3.7759  -3.7721  -3.7426  -3.7293  -3.5996  -3.5925
    -3.5754  -3.5470  -3.5396  -3.5360  -3.5338  -3.5184  -3.4995  -3.4878
    -3.4630  -3.3753  -3.3720  -3.3351  -3.3325  -3.3146  -3.3094  -3.2918
    -3.2874  -3.2430  -3.2285  -3.2127  -3.1157  -3.1127  -3.0990  -3.0953
    -3.0895  -3.0787  -3.0469  -2.9023  -2.8986  -2.8796  -2.8693  -2.7639
    -2.7607  -2.7244  -2.7048  -2.6934  -2.6902  -2.6797  -2.6763  -2.6633
    -2.6383  -2.6304  -2.6197  -2.6096  -2.5691  -2.5374  -2.4883  -2.4464
    -2.3933  -2.3928  -2.3516  -2.3473  -2.3245  -2.3132  -2.2872  -2.2864
    -2.2104  -2.0318  -1.9795  -1.9697  -1.9602  -1.8984  -1.8867  -1.8369
    -1.7977  -1.7616  -1.7531  -1.7486  -1.7392  -1.6961  -1.5443  -1.5382
    -1.5123  -1.4294  -1.4283  -1.4007  -1.3592  -1.3520  -1.3510  -1.3449
    -1.3278  -1.3256  -1.2376  -1.2355  -1.2202  -1.2060  -1.2036  -1.1977
    -1.1598  -1.1572  -1.1174  -1.1071  -1.0753  -0.9976  -0.9920  -0.8521
    -0.8456  -0.8412  -0.8258  -0.7518  -0.7512  -0.6806  -0.5344  -0.5331
    -0.5097  -0.5076  -0.4297

          k = 0.0000-0.0537 0.0000 ( 86504 PWs)   bands (ev):

   -79.2885 -79.2851 -79.2662 -79.2632 -79.2371 -79.2358 -79.2332 -79.2326
   -79.2309 -79.2292 -79.2238 -79.2211 -79.2189 -79.2182 -79.2089 -79.2076
   -79.2058 -79.2054 -79.2021 -79.2004 -79.1987 -79.1976 -79.1949 -79.1929
   -79.1921 -79.1905 -79.1901 -79.1883 -79.1875 -79.1856 -79.1819 -79.1621
   -47.3980 -47.3976 -47.3950 -47.3944 -47.3645 -47.3618 -47.3525 -47.3521
   -47.3493 -47.3491 -47.3386 -47.3361 -47.3174 -47.3146 -47.2939 -47.2915
   -47.2717 -47.2710 -47.2685 -47.2677 -47.2453 -47.2445 -47.2421 -47.2411
   -47.1893 -47.1859 -47.1419 -47.1388 -47.1341 -47.1318 -47.1200 -47.1168
   -47.0841 -47.0810 -47.0645 -47.0626 -47.0608 -47.0602 -47.0233 -47.0219
   -47.0195 -47.0181 -46.9978 -46.9967 -46.9906 -46.9883 -46.9865 -46.9853
   -46.9840 -46.9832 -46.9682 -46.9667 -46.9659 -46.9650 -46.9636 -46.9598
   -46.9441 -46.9417 -46.9258 -46.9252 -46.9233 -46.9220 -46.9164 -46.9150
   -46.9133 -46.9120 -46.9108 -46.9083 -46.9076 -46.9032 -46.8796 -46.8764
   -46.8752 -46.8740 -46.8716 -46.8708 -46.8614 -46.8585 -46.8305 -46.8261
   -46.8199 -46.8167 -46.8092 -46.8070 -46.8048 -46.8033 -46.7927 -46.7906
   -46.7832 -46.7810 -46.7787 -46.7764 -46.7694 -46.7686 -46.7671 -46.7546
   -23.6282 -23.2714 -22.0061 -21.5625 -21.3466 -21.1062 -20.7189 -20.5629
   -15.3412 -14.4192 -12.9295 -11.8306 -11.1001 -10.2069  -9.2710  -8.9407
    -8.5583  -8.3280  -7.8391  -7.5599  -7.5182  -7.1265  -7.0144  -6.6811
    -6.6336  -6.6098  -6.4001  -5.9037  -5.8723  -5.8686  -5.7798  -5.7716
    -5.7367  -5.7305  -5.6946  -5.6404  -5.6392  -5.6382  -5.6377  -5.5830
    -5.5102  -5.4802  -5.3577  -5.3567  -5.3561  -5.3526  -5.2835  -5.2824
    -5.2816  -5.2740  -5.1680  -5.1543  -5.1529  -5.1516  -5.1224  -5.0997
    -5.0923  -5.0763  -5.0721  -5.0214  -5.0178  -4.9357  -4.9339  -4.9332
    -4.9320  -4.7298  -4.7258  -4.7223  -4.7193  -4.6364  -4.6344  -4.5801
    -4.5739  -4.5343  -4.1377  -4.1353  -4.0768  -3.9749  -3.8934  -3.8723
    -3.7633  -3.7296  -3.7272  -3.7262  -3.7102  -3.7080  -3.6951  -3.6933
    -3.6577  -3.5592  -3.5569  -3.5532  -3.5508  -3.5488  -3.5450  -3.5433
    -3.5238  -3.5059  -3.4885  -3.4728  -3.3956  -3.3830  -3.3659  -3.3315
    -3.3288  -3.2663  -3.2653  -3.2593  -3.2462  -2.9271  -2.9256  -2.9222
    -2.9161  -2.9133  -2.9119  -2.9078  -2.9055  -2.9010  -2.8978  -2.8967
    -2.8789  -2.7912  -2.7904  -2.7610  -2.7519  -2.6631  -2.6551  -2.6337
    -2.5207  -2.4937  -2.4922  -2.4826  -2.4197  -2.4182  -2.4162  -2.4151
    -2.3923  -2.3851  -2.3263  -2.2562  -2.1927  -2.0987  -2.0935  -2.0879
    -2.0821  -2.0630  -2.0514  -1.9790  -1.9741  -1.9101  -1.8503  -1.7949
    -1.6748  -1.6740  -1.6706  -1.6640  -1.5984  -1.5608  -1.5555  -1.5518
    -1.5444  -1.5402  -1.5248  -1.4950  -1.4929  -1.4806  -1.4355  -1.4253
    -1.4241  -1.2250  -1.2204  -1.0061  -1.0042  -1.0016  -1.0003  -0.9519
    -0.9472  -0.9452  -0.9425  -0.8286  -0.8185  -0.8167  -0.8159  -0.7972
    -0.7941  -0.7867  -0.7845  -0.6754  -0.6730  -0.5999  -0.5914  -0.5520
    -0.5468  -0.5363  -0.5328

          k = 0.0232 0.0403 0.0000 ( 86511 PWs)   bands (ev):

   -79.2901 -79.2791 -79.2767 -79.2492 -79.2482 -79.2375 -79.2341 -79.2299
   -79.2291 -79.2289 -79.2254 -79.2182 -79.2169 -79.2143 -79.2133 -79.2100
   -79.2086 -79.2034 -79.2014 -79.1995 -79.1985 -79.1972 -79.1959 -79.1933
   -79.1922 -79.1908 -79.1894 -79.1887 -79.1866 -79.1856 -79.1821 -79.1621
   -47.4128 -47.3922 -47.3917 -47.3784 -47.3771 -47.3632 -47.3488 -47.3476
   -47.3437 -47.3435 -47.3312 -47.3306 -47.3185 -47.3172 -47.3069 -47.3050
   -47.3002 -47.2779 -47.2770 -47.2692 -47.2437 -47.2316 -47.2283 -47.1819
   -47.1817 -47.1687 -47.1678 -47.1575 -47.1425 -47.1326 -47.1299 -47.1223
   -47.1215 -47.0692 -47.0500 -47.0494 -47.0418 -47.0395 -47.0320 -47.0187
   -47.0183 -47.0134 -47.0131 -47.0015 -47.0012 -46.9964 -46.9947 -46.9893
   -46.9737 -46.9728 -46.9715 -46.9700 -46.9551 -46.9531 -46.9511 -46.9455
   -46.9440 -46.9425 -46.9351 -46.9350 -46.9310 -46.9292 -46.9220 -46.9216
   -46.9206 -46.9080 -46.9077 -46.9024 -46.8954 -46.8941 -46.8934 -46.8928
   -46.8863 -46.8848 -46.8777 -46.8627 -46.8500 -46.8367 -46.8341 -46.8330
   -46.8181 -46.8173 -46.8155 -46.8108 -46.7997 -46.7990 -46.7943 -46.7915
   -46.7867 -46.7854 -46.7780 -46.7728 -46.7703 -46.7686 -46.7669 -46.7546
   -23.6282 -23.2714 -22.0061 -21.5625 -21.3466 -21.1062 -20.7189 -20.5629
   -15.3412 -14.4192 -12.9296 -11.8306 -11.1000 -10.2069  -9.2708  -8.9411
    -8.5586  -8.3281  -7.8394  -7.5584  -7.5180  -7.1271  -7.0142  -6.7395
    -6.6808  -6.4439  -6.2629  -6.2325  -5.9031  -5.8500  -5.8468  -5.8350
    -5.7162  -5.6899  -5.6842  -5.6676  -5.5828  -5.5053  -5.5044  -5.4953
    -5.4760  -5.4336  -5.4304  -5.3927  -5.3890  -5.3339  -5.3294  -5.3263
    -5.3080  -5.2988  -5.2130  -5.1849  -5.1812  -5.1540  -5.1351  -5.1332
    -5.1218  -4.9855  -4.9837  -4.9756  -4.9736  -4.9688  -4.9385  -4.9362
    -4.9308  -4.9250  -4.7991  -4.7978  -4.6705  -4.5495  -4.5319  -4.4457
    -4.4152  -4.4131  -4.4104  -4.0809  -3.9784  -3.8765  -3.8730  -3.8545
    -3.8465  -3.7691  -3.7557  -3.7522  -3.7438  -3.7225  -3.6952  -3.6911
    -3.6519  -3.6485  -3.6314  -3.6203  -3.6124  -3.6030  -3.5783  -3.5134
    -3.5023  -3.4917  -3.4733  -3.4458  -3.4315  -3.4184  -3.4166  -3.4050
    -3.3602  -3.3136  -3.2718  -3.2417  -3.2346  -3.1178  -3.1006  -3.0305
    -3.0070  -2.9578  -2.9557  -2.8623  -2.8365  -2.8346  -2.7246  -2.7081
    -2.6456  -2.6354  -2.6311  -2.6086  -2.6031  -2.5896  -2.5832  -2.5666
    -2.5576  -2.5528  -2.5096  -2.4857  -2.4456  -2.4437  -2.4322  -2.4237
    -2.4219  -2.3811  -2.3457  -2.3384  -2.2220  -2.1743  -2.1616  -2.1472
    -2.0117  -2.0064  -1.9807  -1.9690  -1.9292  -1.9103  -1.8855  -1.8500
    -1.8396  -1.7991  -1.6624  -1.6398  -1.6004  -1.5661  -1.5447  -1.5194
    -1.4740  -1.4516  -1.4380  -1.4056  -1.4004  -1.3771  -1.3753  -1.3576
    -1.3447  -1.3107  -1.3023  -1.2057  -1.2029  -1.1770  -1.1154  -0.9558
    -0.9427  -0.9386  -0.8711  -0.8691  -0.8556  -0.8158  -0.8055  -0.7961
    -0.7893  -0.7782  -0.7601  -0.7586  -0.6684  -0.6655  -0.6230  -0.6157
    -0.6125  -0.5902  -0.5757

          k =-0.0232 0.0134 0.0000 ( 86514 PWs)   bands (ev):

   -79.2963 -79.2727 -79.2633 -79.2613 -79.2460 -79.2436 -79.2417 -79.2371
   -79.2255 -79.2207 -79.2188 -79.2183 -79.2174 -79.2114 -79.2087 -79.2082
   -79.2076 -79.2061 -79.2050 -79.2038 -79.2000 -79.1978 -79.1967 -79.1935
   -79.1923 -79.1896 -79.1889 -79.1883 -79.1867 -79.1843 -79.1826 -79.1621
   -47.4287 -47.4282 -47.4199 -47.3777 -47.3770 -47.3712 -47.3546 -47.3539
   -47.3372 -47.3356 -47.3158 -47.3147 -47.3083 -47.3080 -47.3015 -47.3001
   -47.2827 -47.2819 -47.2699 -47.2354 -47.2199 -47.2193 -47.1943 -47.1936
   -47.1670 -47.1651 -47.1517 -47.1401 -47.1385 -47.1284 -47.1058 -47.1041
   -47.1012 -47.0994 -47.0979 -47.0975 -47.0641 -47.0635 -47.0439 -47.0298
   -47.0293 -47.0240 -47.0238 -47.0072 -47.0052 -47.0022 -46.9972 -46.9965
   -46.9936 -46.9923 -46.9906 -46.9641 -46.9544 -46.9521 -46.9520 -46.9482
   -46.9475 -46.9393 -46.9382 -46.9346 -46.9210 -46.9196 -46.9188 -46.9173
   -46.9166 -46.9132 -46.9117 -46.9019 -46.8901 -46.8870 -46.8861 -46.8841
   -46.8838 -46.8807 -46.8612 -46.8575 -46.8559 -46.8362 -46.8230 -46.8213
   -46.8182 -46.8105 -46.8091 -46.8084 -46.8063 -46.8033 -46.8026 -46.7900
   -46.7867 -46.7804 -46.7764 -46.7742 -46.7712 -46.7691 -46.7660 -46.7542
   -23.6282 -23.2714 -22.0061 -21.5625 -21.3466 -21.1062 -20.7189 -20.5629
   -15.3413 -14.4191 -12.9296 -11.8304 -11.1001 -10.2071  -9.2707  -8.9413
    -8.5586  -8.3276  -7.8398  -7.5581  -7.5183  -7.1275  -7.0160  -6.9967
    -6.6805  -6.4306  -6.0884  -6.0714  -6.0107  -5.9520  -5.9502  -5.9029
    -5.8036  -5.7696  -5.7166  -5.6929  -5.6548  -5.6151  -5.6001  -5.5842
    -5.5776  -5.5203  -5.3280  -5.3108  -5.3087  -5.3069  -5.2986  -5.2657
    -5.2646  -5.1735  -5.1713  -5.1344  -5.1147  -5.1113  -5.1013  -5.0999
    -5.0864  -5.0805  -4.8992  -4.8978  -4.8419  -4.8380  -4.7969  -4.7694
    -4.7687  -4.6907  -4.6864  -4.6416  -4.6377  -4.6051  -4.6014  -4.5736
    -4.5724  -4.5316  -4.2179  -4.2144  -4.0778  -4.0038  -3.9589  -3.8353
    -3.8336  -3.8001  -3.7759  -3.7731  -3.7428  -3.7269  -3.6008  -3.5962
    -3.5754  -3.5461  -3.5378  -3.5375  -3.5354  -3.5085  -3.5006  -3.4883
    -3.4695  -3.3747  -3.3727  -3.3356  -3.3291  -3.3171  -3.3065  -3.2940
    -3.2879  -3.2407  -3.2281  -3.2130  -3.1160  -3.1123  -3.1006  -3.0978
    -3.0909  -3.0768  -3.0470  -2.9029  -2.8967  -2.8848  -2.8639  -2.7668
    -2.7611  -2.7220  -2.7058  -2.6943  -2.6901  -2.6807  -2.6731  -2.6643
    -2.6341  -2.6319  -2.6182  -2.6124  -2.5680  -2.5372  -2.4881  -2.4468
    -2.3939  -2.3922  -2.3495  -2.3461  -2.3274  -2.3145  -2.2870  -2.2849
    -2.2117  -2.0296  -1.9824  -1.9704  -1.9626  -1.8949  -1.8810  -1.8391
    -1.7976  -1.7681  -1.7539  -1.7443  -1.7399  -1.6949  -1.5420  -1.5346
    -1.5165  -1.4292  -1.4274  -1.3997  -1.3601  -1.3531  -1.3525  -1.3439
    -1.3285  -1.3257  -1.2382  -1.2356  -1.2200  -1.2075  -1.2033  -1.1979
    -1.1619  -1.1554  -1.1117  -1.1084  -1.0760  -1.0009  -0.9908  -0.8543
    -0.8456  -0.8426  -0.8258  -0.7531  -0.7504  -0.6793  -0.5389  -0.5324
    -0.5090  -0.5073  -0.4280

          k = 0.0232 0.0134 0.0000 ( 86514 PWs)   bands (ev):

   -79.2963 -79.2729 -79.2636 -79.2605 -79.2461 -79.2439 -79.2416 -79.2371
   -79.2256 -79.2202 -79.2198 -79.2183 -79.2169 -79.2114 -79.2089 -79.2079
   -79.2072 -79.2062 -79.2053 -79.2039 -79.2004 -79.1982 -79.1957 -79.1937
   -79.1923 -79.1902 -79.1885 -79.1878 -79.1864 -79.1851 -79.1823 -79.1621
   -47.4287 -47.4279 -47.4202 -47.3780 -47.3768 -47.3711 -47.3544 -47.3539
   -47.3376 -47.3355 -47.3154 -47.3151 -47.3084 -47.3079 -47.3016 -47.2997
   -47.2828 -47.2822 -47.2703 -47.2353 -47.2194 -47.2193 -47.1943 -47.1939
   -47.1671 -47.1648 -47.1517 -47.1405 -47.1382 -47.1282 -47.1061 -47.1039
   -47.1012 -47.1004 -47.0985 -47.0964 -47.0638 -47.0635 -47.0440 -47.0312
   -47.0276 -47.0254 -47.0226 -47.0072 -47.0047 -47.0019 -46.9975 -46.9965
   -46.9943 -46.9917 -46.9908 -46.9643 -46.9550 -46.9524 -46.9518 -46.9494
   -46.9461 -46.9394 -46.9385 -46.9343 -46.9213 -46.9194 -46.9187 -46.9180
   -46.9153 -46.9146 -46.9103 -46.9019 -46.8903 -46.8868 -46.8857 -46.8846
   -46.8841 -46.8805 -46.8612 -46.8577 -46.8554 -46.8362 -46.8227 -46.8217
   -46.8177 -46.8118 -46.8086 -46.8075 -46.8070 -46.8036 -46.8018 -46.7902
   -46.7868 -46.7804 -46.7769 -46.7737 -46.7705 -46.7695 -46.7662 -46.7542
   -23.6282 -23.2714 -22.0061 -21.5625 -21.3466 -21.1062 -20.7189 -20.5629
   -15.3413 -14.4191 -12.9296 -11.8305 -11.1000 -10.2071  -9.2706  -8.9416
    -8.5590  -8.3279  -7.8399  -7.5568  -7.5179  -7.1278  -7.0146  -6.9982
    -6.6805  -6.4317  -6.0874  -6.0708  -6.0099  -5.9523  -5.9503  -5.9022
    -5.7995  -5.7729  -5.7178  -5.6952  -5.6517  -5.6140  -5.6034  -5.5840
    -5.5797  -5.5195  -5.3281  -5.3132  -5.3086  -5.3068  -5.2963  -5.2668
    -5.2643  -5.1737  -5.1713  -5.1287  -5.1145  -5.1117  -5.1008  -5.1003
    -5.0860  -5.0836  -4.8995  -4.8981  -4.8425  -4.8376  -4.7950  -4.7702
    -4.7690  -4.6888  -4.6849  -4.6398  -4.6371  -4.6104  -4.5995  -4.5768
    -4.5727  -4.5291  -4.2186  -4.2133  -4.0787  -4.0103  -3.9598  -3.8346
    -3.8324  -3.8031  -3.7765  -3.7746  -3.7396  -3.7297  -3.6022  -3.5851
    -3.5740  -3.5510  -3.5399  -3.5373  -3.5340  -3.5178  -3.5030  -3.4888
    -3.4569  -3.3751  -3.3704  -3.3377  -3.3315  -3.3155  -3.3030  -3.2929
    -3.2861  -3.2456  -3.2285  -3.2130  -3.1146  -3.1125  -3.1063  -3.0946
    -3.0880  -3.0697  -3.0471  -2.9051  -2.8979  -2.8799  -2.8627  -2.7676
    -2.7534  -2.7218  -2.7019  -2.6928  -2.6911  -2.6865  -2.6757  -2.6723
    -2.6404  -2.6300  -2.6230  -2.6116  -2.5681  -2.5373  -2.4892  -2.4372
    -2.3936  -2.3917  -2.3513  -2.3474  -2.3304  -2.3158  -2.2875  -2.2858
    -2.2108  -2.0277  -1.9837  -1.9697  -1.9600  -1.8986  -1.8770  -1.8419
    -1.8065  -1.7595  -1.7514  -1.7443  -1.7399  -1.6967  -1.5446  -1.5407
    -1.5081  -1.4300  -1.4263  -1.3995  -1.3589  -1.3520  -1.3515  -1.3424
    -1.3287  -1.3271  -1.2377  -1.2355  -1.2199  -1.2048  -1.2027  -1.2010
    -1.1595  -1.1571  -1.1133  -1.1112  -1.0820  -0.9975  -0.9898  -0.8503
    -0.8452  -0.8434  -0.8258  -0.7533  -0.7514  -0.6792  -0.5369  -0.5307
    -0.5106  -0.5078  -0.4277

          k = 0.0465-0.0268 0.0000 ( 86504 PWs)   bands (ev):

   -79.2881 -79.2856 -79.2657 -79.2636 -79.2364 -79.2356 -79.2333 -79.2322
   -79.2318 -79.2294 -79.2236 -79.2220 -79.2195 -79.2180 -79.2083 -79.2078
   -79.2053 -79.2038 -79.2016 -79.2004 -79.1994 -79.1981 -79.1943 -79.1939
   -79.1937 -79.1919 -79.1889 -79.1885 -79.1866 -79.1836 -79.1832 -79.1622
   -47.3979 -47.3974 -47.3957 -47.3940 -47.3639 -47.3625 -47.3522 -47.3520
   -47.3503 -47.3485 -47.3384 -47.3361 -47.3171 -47.3153 -47.2937 -47.2920
   -47.2712 -47.2704 -47.2689 -47.2685 -47.2449 -47.2443 -47.2419 -47.2418
   -47.1888 -47.1864 -47.1414 -47.1394 -47.1341 -47.1314 -47.1195 -47.1174
   -47.0838 -47.0814 -47.0633 -47.0630 -47.0610 -47.0607 -47.0228 -47.0213
   -47.0203 -47.0190 -46.9976 -46.9972 -46.9905 -46.9881 -46.9857 -46.9852
   -46.9843 -46.9837 -46.9672 -46.9666 -46.9661 -46.9644 -46.9625 -46.9623
   -46.9438 -46.9417 -46.9258 -46.9251 -46.9232 -46.9227 -46.9156 -46.9150
   -46.9132 -46.9121 -46.9103 -46.9084 -46.9073 -46.9039 -46.8793 -46.8770
   -46.8750 -46.8736 -46.8723 -46.8714 -46.8614 -46.8586 -46.8294 -46.8259
   -46.8196 -46.8168 -46.8079 -46.8071 -46.8067 -46.8042 -46.7929 -46.7901
   -46.7822 -46.7798 -46.7796 -46.7765 -46.7701 -46.7686 -46.7671 -46.7545
   -23.6282 -23.2714 -22.0061 -21.5625 -21.3465 -21.1062 -20.7189 -20.5629
   -15.3412 -14.4192 -12.9295 -11.8304 -11.1001 -10.2071  -9.2709  -8.9409
    -8.5582  -8.3275  -7.8395  -7.5595  -7.5184  -7.1269  -7.0145  -6.6806
    -6.6354  -6.6074  -6.3985  -5.9078  -5.8688  -5.8677  -5.8075  -5.7724
    -5.7316  -5.7304  -5.6697  -5.6405  -5.6398  -5.6382  -5.6371  -5.5770
    -5.5089  -5.5008  -5.3576  -5.3569  -5.3564  -5.3514  -5.2842  -5.2824
    -5.2811  -5.2643  -5.1617  -5.1530  -5.1518  -5.1472  -5.1357  -5.1013
    -5.0930  -5.0762  -5.0703  -5.0215  -5.0188  -4.9360  -4.9341  -4.9325
    -4.9310  -4.7280  -4.7265  -4.7248  -4.7215  -4.6377  -4.6342  -4.5773
    -4.5759  -4.5348  -4.1389  -4.1359  -4.0759  -3.9555  -3.8936  -3.8823
    -3.7608  -3.7302  -3.7273  -3.7242  -3.7198  -3.7058  -3.6945  -3.6937
    -3.6514  -3.5601  -3.5575  -3.5532  -3.5504  -3.5476  -3.5455  -3.5445
    -3.5203  -3.5018  -3.4916  -3.4878  -3.3948  -3.3816  -3.3619  -3.3321
    -3.3271  -3.2718  -3.2659  -3.2607  -3.2407  -2.9275  -2.9249  -2.9225
    -2.9165  -2.9136  -2.9126  -2.9101  -2.9047  -2.8993  -2.8987  -2.8982
    -2.8795  -2.7924  -2.7893  -2.7610  -2.7491  -2.6685  -2.6518  -2.6312
    -2.5166  -2.4941  -2.4920  -2.4816  -2.4199  -2.4174  -2.4161  -2.4133
    -2.3892  -2.3784  -2.3273  -2.2765  -2.1875  -2.1009  -2.0890  -2.0871
    -2.0851  -2.0588  -2.0542  -1.9756  -1.9740  -1.9003  -1.8436  -1.8188
    -1.6787  -1.6710  -1.6679  -1.6673  -1.5918  -1.5586  -1.5564  -1.5488
    -1.5383  -1.5358  -1.5235  -1.4956  -1.4931  -1.4922  -1.4390  -1.4252
    -1.4211  -1.2252  -1.2207  -1.0121  -1.0049  -1.0027  -0.9992  -0.9500
    -0.9473  -0.9459  -0.9410  -0.8265  -0.8177  -0.8167  -0.8159  -0.8007
    -0.7935  -0.7870  -0.7834  -0.6810  -0.6722  -0.5996  -0.5904  -0.5625
    -0.5396  -0.5349  -0.5329

          k =-0.0465-0.0268 0.0000 ( 86504 PWs)   bands (ev):

   -79.2872 -79.2867 -79.2660 -79.2629 -79.2362 -79.2352 -79.2340 -79.2333
   -79.2315 -79.2295 -79.2228 -79.2214 -79.2208 -79.2173 -79.2078 -79.2071
   -79.2062 -79.2049 -79.2012 -79.1999 -79.1994 -79.1982 -79.1949 -79.1946
   -79.1925 -79.1921 -79.1889 -79.1879 -79.1863 -79.1851 -79.1825 -79.1621
   -47.3972 -47.3964 -47.3957 -47.3952 -47.3640 -47.3629 -47.3522 -47.3510
   -47.3503 -47.3496 -47.3389 -47.3360 -47.3165 -47.3156 -47.2939 -47.2914
   -47.2718 -47.2702 -47.2690 -47.2674 -47.2460 -47.2438 -47.2436 -47.2402
   -47.1891 -47.1860 -47.1409 -47.1401 -47.1346 -47.1308 -47.1194 -47.1174
   -47.0840 -47.0811 -47.0645 -47.0629 -47.0617 -47.0595 -47.0226 -47.0212
   -47.0210 -47.0173 -46.9979 -46.9968 -46.9895 -46.9890 -46.9869 -46.9856
   -46.9840 -46.9826 -46.9683 -46.9665 -46.9661 -46.9655 -46.9639 -46.9600
   -46.9437 -46.9422 -46.9265 -46.9251 -46.9246 -46.9208 -46.9165 -46.9151
   -46.9133 -46.9113 -46.9102 -46.9072 -46.9066 -46.9049 -46.8787 -46.8771
   -46.8754 -46.8742 -46.8722 -46.8713 -46.8617 -46.8579 -46.8301 -46.8251
   -46.8191 -46.8173 -46.8097 -46.8071 -46.8055 -46.8037 -46.7916 -46.7911
   -46.7825 -46.7811 -46.7794 -46.7752 -46.7699 -46.7690 -46.7672 -46.7545
   -23.6282 -23.2714 -22.0061 -21.5625 -21.3466 -21.1062 -20.7189 -20.5629
   -15.3413 -14.4191 -12.9296 -11.8306 -11.1000 -10.2070  -9.2706  -8.9415
    -8.5590  -8.3281  -7.8397  -7.5569  -7.5177  -7.1276  -7.0141  -6.6810
    -6.6377  -6.6085  -6.3945  -5.9106  -5.8687  -5.8641  -5.8006  -5.7759
    -5.7320  -5.7296  -5.6787  -5.6412  -5.6406  -5.6386  -5.6363  -5.5743
    -5.5093  -5.5006  -5.3577  -5.3568  -5.3565  -5.3511  -5.2844  -5.2829
    -5.2814  -5.2647  -5.1695  -5.1547  -5.1519  -5.1473  -5.1144  -5.1011
    -5.0965  -5.0758  -5.0739  -5.0213  -5.0190  -4.9357  -4.9345  -4.9330
    -4.9304  -4.7297  -4.7250  -4.7238  -4.7206  -4.6355  -4.6336  -4.5828
    -4.5757  -4.5321  -4.1397  -4.1350  -4.0787  -3.9745  -3.8921  -3.8813
    -3.7626  -3.7293  -3.7258  -3.7238  -3.7092  -3.7087  -3.6958  -3.6935
    -3.6628  -3.5593  -3.5568  -3.5540  -3.5498  -3.5481  -3.5461  -3.5419
    -3.5243  -3.5040  -3.4896  -3.4578  -3.3972  -3.3857  -3.3628  -3.3317
    -3.3305  -3.2753  -3.2625  -3.2566  -3.2417  -2.9275  -2.9248  -2.9202
    -2.9171  -2.9138  -2.9107  -2.9101  -2.9057  -2.8994  -2.8979  -2.8944
    -2.8661  -2.7924  -2.7896  -2.7666  -2.7566  -2.6678  -2.6599  -2.6351
    -2.5187  -2.4929  -2.4906  -2.4804  -2.4199  -2.4176  -2.4156  -2.4131
    -2.3928  -2.3860  -2.3343  -2.2588  -2.1860  -2.1023  -2.0924  -2.0893
    -2.0810  -2.0619  -2.0482  -1.9775  -1.9732  -1.9002  -1.8361  -1.8290
    -1.6789  -1.6718  -1.6706  -1.6650  -1.5925  -1.5695  -1.5523  -1.5500
    -1.5429  -1.5339  -1.5270  -1.4936  -1.4923  -1.4831  -1.4413  -1.4241
    -1.4128  -1.2262  -1.2243  -1.0059  -1.0051  -1.0028  -1.0007  -0.9526
    -0.9500  -0.9457  -0.9412  -0.8237  -0.8185  -0.8172  -0.8171  -0.7978
    -0.7921  -0.7865  -0.7837  -0.6779  -0.6697  -0.6004  -0.5916  -0.5672
    -0.5411  -0.5354  -0.5334

          k =-0.0232 0.0403 0.0000 ( 86511 PWs)   bands (ev):

   -79.2901 -79.2784 -79.2774 -79.2498 -79.2478 -79.2378 -79.2336 -79.2299
   -79.2293 -79.2275 -79.2265 -79.2181 -79.2173 -79.2154 -79.2122 -79.2100
   -79.2086 -79.2032 -79.2016 -79.2001 -79.1986 -79.1966 -79.1951 -79.1934
   -79.1925 -79.1913 -79.1895 -79.1885 -79.1869 -79.1850 -79.1823 -79.1621
   -47.4130 -47.3925 -47.3914 -47.3779 -47.3772 -47.3629 -47.3487 -47.3479
   -47.3447 -47.3429 -47.3316 -47.3303 -47.3184 -47.3173 -47.3063 -47.3050
   -47.3000 -47.2782 -47.2769 -47.2691 -47.2436 -47.2316 -47.2286 -47.1835
   -47.1809 -47.1694 -47.1665 -47.1574 -47.1426 -47.1321 -47.1303 -47.1225
   -47.1213 -47.0691 -47.0503 -47.0491 -47.0413 -47.0396 -47.0325 -47.0189
   -47.0181 -47.0143 -47.0119 -47.0016 -47.0011 -46.9970 -46.9950 -46.9894
   -46.9738 -46.9726 -46.9711 -46.9696 -46.9542 -46.9536 -46.9515 -46.9454
   -46.9436 -46.9429 -46.9356 -46.9344 -46.9303 -46.9296 -46.9227 -46.9211
   -46.9207 -46.9087 -46.9070 -46.9025 -46.8952 -46.8946 -46.8936 -46.8925
   -46.8865 -46.8848 -46.8777 -46.8627 -46.8500 -46.8366 -46.8338 -46.8334
   -46.8184 -46.8172 -46.8153 -46.8106 -46.8007 -46.7987 -46.7938 -46.7916
   -46.7866 -46.7850 -46.7785 -46.7724 -46.7708 -46.7683 -46.7669 -46.7545
   -23.6282 -23.2714 -22.0061 -21.5625 -21.3466 -21.1062 -20.7189 -20.5629
   -15.3412 -14.4192 -12.9295 -11.8305 -11.1001 -10.2070  -9.2709  -8.9408
    -8.5582  -8.3278  -7.8393  -7.5597  -7.5183  -7.1267  -7.0145  -6.7386
    -6.6808  -6.4440  -6.2639  -6.2323  -5.9020  -5.8503  -5.8479  -5.8352
    -5.7139  -5.6893  -5.6850  -5.6693  -5.5836  -5.5049  -5.5039  -5.4957
    -5.4749  -5.4332  -5.4307  -5.3933  -5.3865  -5.3337  -5.3299  -5.3270
    -5.3081  -5.2995  -5.2092  -5.1897  -5.1805  -5.1547  -5.1375  -5.1337
    -5.1193  -4.9857  -4.9835  -4.9759  -4.9740  -4.9688  -4.9386  -4.9368
    -4.9309  -4.9242  -4.7989  -4.7972  -4.6706  -4.5529  -4.5264  -4.4446
    -4.4175  -4.4151  -4.4113  -4.0800  -3.9675  -3.8765  -3.8736  -3.8552
    -3.8497  -3.7715  -3.7535  -3.7499  -3.7479  -3.7129  -3.6962  -3.6888
    -3.6526  -3.6519  -3.6451  -3.6180  -3.6128  -3.6037  -3.5626  -3.5137
    -3.5072  -3.4989  -3.4621  -3.4565  -3.4325  -3.4178  -3.4139  -3.4035
    -3.3583  -3.3146  -3.2718  -3.2447  -3.2389  -3.1201  -3.1098  -3.0281
    -3.0072  -2.9595  -2.9489  -2.8621  -2.8376  -2.8313  -2.7187  -2.7092
    -2.6407  -2.6359  -2.6332  -2.6083  -2.6008  -2.5954  -2.5864  -2.5633
    -2.5584  -2.5529  -2.5116  -2.4878  -2.4474  -2.4422  -2.4322  -2.4253
    -2.4185  -2.3728  -2.3467  -2.3379  -2.2268  -2.1672  -2.1637  -2.1524
    -2.0102  -2.0048  -1.9807  -1.9699  -1.9347  -1.9075  -1.8762  -1.8537
    -1.8277  -1.8169  -1.6642  -1.6401  -1.5905  -1.5701  -1.5377  -1.5197
    -1.4806  -1.4586  -1.4319  -1.4076  -1.4032  -1.3772  -1.3754  -1.3581
    -1.3445  -1.3099  -1.2951  -1.2066  -1.2030  -1.1816  -1.1151  -0.9559
    -0.9417  -0.9391  -0.8737  -0.8688  -0.8568  -0.8069  -0.8049  -0.7961
    -0.7907  -0.7804  -0.7602  -0.7569  -0.6693  -0.6655  -0.6240  -0.6148
    -0.6141  -0.5923  -0.5789

          k = 0.0465-0.0000 0.0000 ( 86511 PWs)   bands (ev):

   -79.2900 -79.2796 -79.2763 -79.2502 -79.2471 -79.2376 -79.2335 -79.2306
   -79.2294 -79.2286 -79.2254 -79.2183 -79.2171 -79.2154 -79.2120 -79.2105
   -79.2078 -79.2032 -79.2003 -79.2000 -79.1988 -79.1977 -79.1960 -79.1931
   -79.1924 -79.1912 -79.1906 -79.1880 -79.1864 -79.1843 -79.1828 -79.1622
   -47.4128 -47.3922 -47.3917 -47.3782 -47.3773 -47.3631 -47.3493 -47.3467
   -47.3440 -47.3434 -47.3313 -47.3309 -47.3182 -47.3175 -47.3072 -47.3043
   -47.3002 -47.2778 -47.2772 -47.2693 -47.2436 -47.2318 -47.2283 -47.1826
   -47.1813 -47.1693 -47.1669 -47.1574 -47.1423 -47.1333 -47.1295 -47.1220
   -47.1216 -47.0692 -47.0502 -47.0492 -47.0419 -47.0395 -47.0322 -47.0190
   -47.0182 -47.0133 -47.0125 -47.0015 -47.0011 -46.9968 -46.9950 -46.9894
   -46.9743 -46.9725 -46.9716 -46.9686 -46.9552 -46.9540 -46.9510 -46.9454
   -46.9440 -46.9425 -46.9356 -46.9345 -46.9318 -46.9281 -46.9221 -46.9211
   -46.9208 -46.9081 -46.9075 -46.9023 -46.8959 -46.8940 -46.8936 -46.8926
   -46.8862 -46.8853 -46.8777 -46.8632 -46.8500 -46.8361 -46.8340 -46.8331
   -46.8177 -46.8171 -46.8155 -46.8114 -46.8002 -46.7986 -46.7943 -46.7923
   -46.7875 -46.7832 -46.7783 -46.7726 -46.7710 -46.7686 -46.7668 -46.7544
   -23.6282 -23.2714 -22.0061 -21.5625 -21.3466 -21.1062 -20.7189 -20.5629
   -15.3413 -14.4191 -12.9296 -11.8305 -11.1000 -10.2070  -9.2707  -8.9412
    -8.5586  -8.3278  -7.8396  -7.5582  -7.5181  -7.1273  -7.0143  -6.7397
    -6.6806  -6.4419  -6.2664  -6.2310  -5.9040  -5.8485  -5.8471  -5.8343
    -5.7085  -5.6900  -5.6845  -5.6764  -5.5853  -5.5048  -5.5030  -5.4948
    -5.4866  -5.4321  -5.4319  -5.3920  -5.3830  -5.3298  -5.3286  -5.3246
    -5.3065  -5.3038  -5.2107  -5.1868  -5.1814  -5.1548  -5.1388  -5.1279
    -5.1196  -4.9842  -4.9825  -4.9758  -4.9735  -4.9681  -4.9390  -4.9375
    -4.9310  -4.9281  -4.7999  -4.7973  -4.6720  -4.5484  -4.5331  -4.4475
    -4.4151  -4.4128  -4.4079  -4.0812  -3.9722  -3.8764  -3.8732  -3.8554
    -3.8495  -3.7699  -3.7579  -3.7483  -3.7461  -3.7160  -3.6945  -3.6906
    -3.6521  -3.6503  -3.6377  -3.6204  -3.6121  -3.6053  -3.5703  -3.5119
    -3.5077  -3.4921  -3.4723  -3.4467  -3.4319  -3.4184  -3.4149  -3.4041
    -3.3577  -3.3148  -3.2726  -3.2427  -3.2367  -3.1164  -3.1048  -3.0294
    -3.0074  -2.9587  -2.9539  -2.8624  -2.8371  -2.8336  -2.7193  -2.7085
    -2.6498  -2.6346  -2.6263  -2.6103  -2.6054  -2.5878  -2.5833  -2.5678
    -2.5572  -2.5533  -2.5120  -2.4890  -2.4465  -2.4426  -2.4304  -2.4262
    -2.4159  -2.3791  -2.3451  -2.3345  -2.2328  -2.1704  -2.1643  -2.1451
    -2.0126  -2.0062  -1.9783  -1.9716  -1.9332  -1.9054  -1.8781  -1.8587
    -1.8304  -1.8040  -1.6606  -1.6479  -1.5950  -1.5671  -1.5378  -1.5195
    -1.4752  -1.4516  -1.4411  -1.4068  -1.4019  -1.3772  -1.3759  -1.3547
    -1.3464  -1.3111  -1.2998  -1.2054  -1.2037  -1.1778  -1.1154  -0.9571
    -0.9434  -0.9399  -0.8717  -0.8694  -0.8571  -0.8092  -0.8054  -0.7982
    -0.7899  -0.7781  -0.7608  -0.7587  -0.6701  -0.6658  -0.6225  -0.6153
    -0.6134  -0.5898  -0.5771

     the Fermi energy is    -0.7855 ev

!    total energy              =  -15381.67812961 Ry
     Harris-Foulkes estimate   =  -15381.67812981 Ry
     estimated scf accuracy    <       0.00000022 Ry

     The total energy is the sum of the following terms:

     one-electron contribution =  -77344.02585815 Ry
     hartree contribution      =   38679.22650783 Ry
     xc contribution           =   -1033.49989631 Ry
     ewald contribution        =   32200.12272370 Ry
     one-center paw contrib.   =   -7883.35778014 Ry
     smearing contrib. (-TS)   =      -0.14382654 Ry

     convergence has been achieved in  67 iterations

     Forces acting on atoms (Ry/au):


     negative rho (up, down):  6.670E-02 0.000E+00
     atom    1 type  1   force =    -0.00012069   -0.00019149    0.01361123
     atom    2 type  1   force =     0.00032568    0.00036762   -0.01345811
     atom    3 type  1   force =     0.00010276   -0.00002808    0.01358497
     atom    4 type  1   force =     0.00010477    0.00036497   -0.01343438
     atom    5 type  1   force =     0.00187186   -0.00134315    0.01018706
     atom    6 type  1   force =     0.00007408    0.00020923   -0.01355156
     atom    7 type  1   force =    -0.00011578    0.00081959    0.01336641
     atom    8 type  1   force =     0.00024670   -0.00012752   -0.01352587
     atom    9 type  1   force =    -0.00023477   -0.00024795    0.01336718
     atom   10 type  1   force =    -0.00166321    0.00007326   -0.01556130
     atom   11 type  1   force =    -0.00051719   -0.00021373    0.01351638
     atom   12 type  1   force =    -0.00186856   -0.00100254   -0.01519012
     atom   13 type  1   force =    -0.00018130   -0.00003161    0.01383543
     atom   14 type  1   force =    -0.00123760   -0.00012772   -0.01376001
     atom   15 type  1   force =     0.00002286   -0.00028237    0.01341297
     atom   16 type  1   force =     0.00032368   -0.00030711   -0.01253449
     atom   17 type  1   force =    -0.00020217    0.00006596    0.01391776
     atom   18 type  1   force =     0.00079814   -0.00080697   -0.01338028
     atom   19 type  1   force =     0.00074253    0.00045927    0.01302618
     atom   20 type  1   force =     0.00001691   -0.00327879   -0.01589357
     atom   21 type  1   force =     0.00031253    0.00044084    0.01337167
     atom   22 type  1   force =    -0.00548452    0.00195756   -0.02359006
     atom   23 type  1   force =     0.00024656   -0.00002015    0.01333744
     atom   24 type  1   force =    -0.00067657    0.00059238   -0.01319597
     atom   25 type  1   force =     0.00034570   -0.00021337    0.01366752
     atom   26 type  1   force =    -0.00020203    0.00038980   -0.01338294
     atom   27 type  1   force =    -0.00045055    0.00041922    0.01415792
     atom   28 type  1   force =     0.00103892   -0.00049141   -0.01430746
     atom   29 type  1   force =    -0.00002433   -0.00011441    0.01140366
     atom   30 type  1   force =     0.01301848    0.00601167   -0.03408682
     atom   31 type  1   force =    -0.00036891   -0.00017643    0.01384155
     atom   32 type  1   force =     0.00027836    0.00087196   -0.01228157
     atom   33 type  2   force =    -0.00332413   -0.01975470   -0.01303512
     atom   34 type  2   force =     0.01398728   -0.00380521    0.00758330
     atom   35 type  2   force =    -0.01045316    0.00979800    0.01148377
     atom   36 type  2   force =    -0.00170756   -0.00836023    0.02091671
     atom   37 type  2   force =    -0.02495025    0.02594445   -0.00559017
     atom   38 type  2   force =    -0.00692481   -0.04604583    0.03672527
     atom   39 type  2   force =    -0.02947415    0.02376166   -0.00908788
     atom   40 type  2   force =     0.00262729   -0.03248755   -0.00456322
     atom   41 type  3   force =     0.02751411    0.00305413    0.02327589
     atom   42 type  3   force =    -0.00430558    0.02729573    0.00313940
     atom   43 type  3   force =    -0.00033759   -0.02838189    0.02499292
     atom   44 type  3   force =    -0.03848011   -0.00513165    0.00539244
     atom   45 type  3   force =     0.06004923   -0.04085778   -0.01144655
     atom   46 type  3   force =     0.01547863    0.04379695   -0.00480356
     atom   47 type  4   force =    -0.02394052    0.00696832   -0.00834597
     atom   48 type  4   force =     0.00042332   -0.00241269   -0.00467698
     atom   49 type  4   force =    -0.00169184    0.01721854   -0.01137730
     atom   50 type  4   force =     0.00642490   -0.01556721   -0.01775501
     atom   51 type  4   force =    -0.00156422    0.00432885   -0.00798053
     atom   52 type  4   force =    -0.00661329    0.00654747   -0.00239576
     atom   53 type  4   force =     0.00198374    0.00052794    0.00212768
     atom   54 type  4   force =     0.00363944    0.00713473    0.00609902
     atom   55 type  4   force =     0.01094713   -0.00933737    0.00522516
[...]
     MD5 check sum: ceb12254454c5aaeede670f925ab9aba
     Pseudo is Projector augmented-wave + core cor, Zval = 17.0
     Generated using "atomic" code by A. Dal Corso  v.5.1
     Shape of augmentation charge: PSQ
     Using radial grid of 1233 points,  6 beta functions with: 
                l(1) =   0
                l(2) =   0
                l(3) =   1
                l(4) =   1
                l(5) =   2
                l(6) =   2
     Q(r) pseudized with 0 coefficients 


     PseudoPot. # 2 for O  read from file:
     /gpfs/pace1/project/chbe-medford/medford-share/data/pseudos/SSSP_eff_PBE/O.UPF
     MD5 check sum: 734c27235a0248c51dbae37a1fbe46ec
     Pseudo is Ultrasoft + core correction, Zval =  6.0
     Generated by new atomic code, or converted to UPF format
     Using radial grid of  737 points,  5 beta functions with: 
                l(1) =   0
                l(2) =   0
                l(3) =   1
                l(4) =   1
                l(5) =   2
     Q(r) pseudized with  8 coefficients,  rinner =    0.900   0.900   0.900
                                                       0.900   0.900

     PseudoPot. # 3 for C  read from file:
     /gpfs/pace1/project/chbe-medford/medford-share/data/pseudos/SSSP_eff_PBE/C.UPF
     MD5 check sum: d1aef80898a10debaa0f26306b886e00
     Pseudo is Ultrasoft + core correction, Zval =  4.0
     Generated by new atomic code, or converted to UPF format
     Using radial grid of  721 points,  4 beta functions with: 
                l(1) =   0
                l(2) =   0
                l(3) =   1
                l(4) =   1
     Q(r) pseudized with  8 coefficients,  rinner =    1.100   1.100   1.100


     PseudoPot. # 4 for  H read from file:
     /gpfs/pace1/project/chbe-medford/medford-share/data/pseudos/SSSP_eff_PBE/H.UPF
     MD5 check sum: 36633979392af7100e6f6632747262d3
     Pseudo is Ultrasoft, Zval =  1.0
     Generated using "atomic" code by A. Dal Corso  v.5.0.99 svn rev. 10869
     Using radial grid of  929 points,  2 beta functions with: 
                l(1) =   0
                l(2) =   0
     Q(r) pseudized with 0 coefficients 


     atomic species   valence    mass     pseudopotential
        Rh1           17.00   102.90550     Rh( 1.00)
        O1             6.00    15.99940     O ( 1.00)
        C1             4.00    12.01100     C ( 1.00)
        H1             1.00     1.00794      H( 1.00)

     No symmetry found



   Cartesian axes

     site n.     atom                  positions (alat units)
         1           Rh1 tau(   1) = (   0.0000000   0.0000000  10.0000000  )
         2           Rh1 tau(   2) = (   1.3447050   0.7763658  12.1958940  )
         3           Rh1 tau(   3) = (  -1.3447050   2.3290973  10.0000000  )
         4           Rh1 tau(   4) = (   0.0000000   3.1054631  12.1958940  )
         5           Rh1 tau(   5) = (  -2.6894099   4.6581946  10.0000000  )
         6           Rh1 tau(   6) = (  -1.3447050   5.4345604  12.1958940  )
         7           Rh1 tau(   7) = (  -4.0341149   6.9872920  10.0000000  )
         8           Rh1 tau(   8) = (  -2.6894099   7.7636577  12.1958940  )
         9           Rh1 tau(   9) = (   2.6894099   0.0000000  10.0000000  )
        10           Rh1 tau(  10) = (   4.0341149   0.7763658  12.1958940  )
        11           Rh1 tau(  11) = (   1.3447050   2.3290973  10.0000000  )
        12           Rh1 tau(  12) = (   2.6894099   3.1054631  12.1958940  )
        13           Rh1 tau(  13) = (   0.0000000   4.6581946  10.0000000  )
        14           Rh1 tau(  14) = (   1.3447050   5.4345604  12.1958940  )
        15           Rh1 tau(  15) = (  -1.3447050   6.9872920  10.0000000  )
        16           Rh1 tau(  16) = (   0.0000000   7.7636577  12.1958940  )
        17           Rh1 tau(  17) = (   5.3788199   0.0000000  10.0000000  )
        18           Rh1 tau(  18) = (   6.7235248   0.7763658  12.1958940  )
        19           Rh1 tau(  19) = (   4.0341149   2.3290973  10.0000000  )
        20           Rh1 tau(  20) = (   5.3788199   3.1054631  12.1958940  )
        21           Rh1 tau(  21) = (   2.6894099   4.6581946  10.0000000  )
        22           Rh1 tau(  22) = (   4.0341149   5.4345604  12.1958940  )
        23           Rh1 tau(  23) = (   1.3447050   6.9872920  10.0000000  )
        24           Rh1 tau(  24) = (   2.6894099   7.7636577  12.1958940  )
        25           Rh1 tau(  25) = (   8.0682298   0.0000000  10.0000000  )
        26           Rh1 tau(  26) = (   9.4129348   0.7763658  12.1958940  )
        27           Rh1 tau(  27) = (   6.7235248   2.3290973  10.0000000  )
        28           Rh1 tau(  28) = (   8.0682298   3.1054631  12.1958940  )
        29           Rh1 tau(  29) = (   5.3788199   4.6581946  10.0000000  )
        30           Rh1 tau(  30) = (   6.7235248   5.4345604  12.1958940  )
        31           Rh1 tau(  31) = (   4.0341149   6.9872920  10.0000000  )
        32           Rh1 tau(  32) = (   5.3788199   7.7636577  12.1958940  )
        33           O1  tau(  33) = (   5.7330956   1.7444748  19.1204268  )
        34           O1  tau(  34) = (   5.8677536   4.2933306  18.1385011  )
        35           O1  tau(  35) = (   3.4876804   0.2547846  18.9015020  )
        36           O1  tau(  36) = (   2.9862916   4.5176792  17.5730296  )
        37           O1  tau(  37) = (   4.2762468   0.7465538  15.4889445  )
        38           O1  tau(  38) = (   5.5196428   4.6079964  14.9952673  )
        39           O1  tau(  39) = (   0.0301511   8.6845569  16.9071284  )
        40           O1  tau(  40) = (   4.2414711   6.3028437  15.8173510  )
        41           C1  tau(  41) = (   4.6137755   2.2381478  18.4049787  )
        42           C1  tau(  42) = (   5.0810652   3.3234575  17.4177388  )
        43           C1  tau(  43) = (   3.8334978   1.0594669  17.7898907  )
        44           C1  tau(  44) = (   3.9442284   4.0233562  16.6555465  )
        45           C1  tau(  45) = (   4.6259948   0.2729191  16.7365567  )
        46           C1  tau(  46) = (   4.5678089   5.1298565  15.8131056  )
        47           H1  tau(  47) = (   3.8857356   2.6914275  19.0968975  )
        48           H1  tau(  48) = (   5.7619494   2.8906467  16.6651078  )
        49           H1  tau(  49) = (   2.9436616   1.4571970  17.2648311  )
        50           H1  tau(  50) = (   3.5094827   3.3204088  15.9263323  )
        51           H1  tau(  51) = (   6.2736646   2.5374289  19.3294244  )
        52           H1  tau(  52) = (   5.2327074   4.8629162  18.6151290  )
        53           H1  tau(  53) = (  -2.3279194   8.7495386  18.5898887  )
        54           H1  tau(  54) = (   2.5013493   5.2583124  17.1554709  )
        55           H1  tau(  55) = (   4.7745246   0.2270305  14.8199535  )
        56           H1  tau(  56) = (   5.7650010   5.2856260  14.3148088  )

     number of k points=    10  Fermi-Dirac smearing, width (Ry)=  0.0073
                       cart. coord. in units 2pi/alat
        k(    1) = (   0.0000000   0.0000000   0.0000000), wk =   0.1250000
        k(    2) = (   0.0000000   0.0268344   0.0000000), wk =   0.2500000
        k(    3) = (   0.0000000  -0.0536689   0.0000000), wk =   0.1250000
        k(    4) = (   0.0232393   0.0402516   0.0000000), wk =   0.2500000
        k(    5) = (  -0.0232393   0.0134172   0.0000000), wk =   0.2500000
        k(    6) = (   0.0232393   0.0134172   0.0000000), wk =   0.2500000
        k(    7) = (   0.0464786  -0.0268344   0.0000000), wk =   0.1250000
        k(    8) = (  -0.0464786  -0.0268344   0.0000000), wk =   0.1250000
        k(    9) = (  -0.0232393   0.0402516   0.0000000), wk =   0.2500000
        k(   10) = (   0.0464786  -0.0000000   0.0000000), wk =   0.2500000

     Dense  grid:  2024909 G-vectors     FFT dimensions: ( 120, 120, 324)

     Smooth grid:   692451 G-vectors     FFT dimensions: (  90,  90, 225)

     Largest allocated arrays     est. size (Mb)     dimensions
        Kohn-Sham Wavefunctions        35.74 Mb     (    7251,  323)
        NL pseudopotentials            82.76 Mb     (    7251,  748)
        Each V/rho on FFT grid          5.93 Mb     (  388800)
        Each G-vector array             1.29 Mb     (  168746)
        G-vector shells                 0.42 Mb     (   55307)
     Largest temporary arrays     est. size (Mb)     dimensions
        Auxiliary wavefunctions       142.95 Mb     (    7251, 1292)
        Each subspace H/S matrix       25.47 Mb     (    1292, 1292)
        Each <psi_i|beta_j> matrix      3.69 Mb     (     748,  323)
        Arrays for rho mixing          47.46 Mb     (  388800,    8)

     Check: negative/imaginary core charge=   -0.000001    0.000000

     Initial potential from superposition of free atoms
     Check: negative starting charge=   -0.057918

     starting charge  625.98398, renormalised to  626.00000

     negative rho (up, down):  5.792E-02 0.000E+00
     Starting wfc are  386 randomized atomic wfcs
     Checking if some PAW data can be deallocated... 

     total cpu time spent up to now is     1269.2 secs

     per-process dynamical memory:   612.4 Mb

     Self-consistent Calculation

     iteration #  1     ecut=    40.42 Ry     beta=0.15
     Davidson diagonalization with overlap
     ethr =  1.00E-02,  avg # of iterations =  2.6

     negative rho (up, down):  4.584E-02 0.000E+00

     total cpu time spent up to now is     4719.1 secs

     total energy              =  -15382.85187065 Ry
     Harris-Foulkes estimate   =  -15383.29123390 Ry
     estimated scf accuracy    <       6.98808586 Ry

     iteration #  2     ecut=    40.42 Ry     beta=0.15
     Davidson diagonalization with overlap
     ethr =  1.12E-03,  avg # of iterations =  2.6

     negative rho (up, down):  2.282E-02 0.000E+00

     total cpu time spent up to now is     7463.3 secs

     total energy              =  -15381.30003315 Ry
     Harris-Foulkes estimate   =  -15382.99735361 Ry
     estimated scf accuracy    <       5.37380097 Ry

     iteration #  3     ecut=    40.42 Ry     beta=0.15
     Davidson diagonalization with overlap
     ethr =  8.58E-04,  avg # of iterations =  4.4

     negative rho (up, down):  2.159E-02 0.000E+00

     total cpu time spent up to now is    10707.2 secs

     total energy              =  -15381.96268581 Ry
     Harris-Foulkes estimate   =  -15381.98403009 Ry
     estimated scf accuracy    <       1.71788696 Ry

     iteration #  4     ecut=    40.42 Ry     beta=0.15
     Davidson diagonalization with overlap
     ethr =  2.74E-04,  avg # of iterations =  1.5

     negative rho (up, down):  1.504E-02 0.000E+00

     total cpu time spent up to now is    13156.7 secs

     total energy              =  -15381.77881913 Ry
     Harris-Foulkes estimate   =  -15381.97601803 Ry
     estimated scf accuracy    <       1.35705435 Ry

     iteration #  5     ecut=    40.42 Ry     beta=0.15
     Davidson diagonalization with overlap
     ethr =  2.17E-04,  avg # of iterations =  2.0

     negative rho (up, down):  1.086E-02 0.000E+00

     total cpu time spent up to now is    15745.4 secs

     total energy              =  -15381.75155993 Ry
     Harris-Foulkes estimate   =  -15381.82090104 Ry
     estimated scf accuracy    <       0.42446332 Ry

     iteration #  6     ecut=    40.42 Ry     beta=0.15
     Davidson diagonalization with overlap
     ethr =  6.78E-05,  avg # of iterations =  6.9

     negative rho (up, down):  8.504E-03 0.000E+00

     total cpu time spent up to now is    19392.3 secs

     total energy              =  -15381.76742304 Ry
     Harris-Foulkes estimate   =  -15381.78372010 Ry
     estimated scf accuracy    <       0.24729465 Ry

     iteration #  7     ecut=    40.42 Ry     beta=0.15
     Davidson diagonalization with overlap
     ethr =  3.95E-05,  avg # of iterations =  1.4

     negative rho (up, down):  6.202E-03 0.000E+00

     total cpu time spent up to now is    23323.5 secs

     total energy              =  -15381.75572049 Ry
     Harris-Foulkes estimate   =  -15381.77164104 Ry
     estimated scf accuracy    <       0.17147057 Ry

     iteration #  8     ecut=    40.42 Ry     beta=0.15
     Davidson diagonalization with overlap
     ethr =  2.74E-05,  avg # of iterations =  1.7

     negative rho (up, down):  4.066E-03 0.000E+00

     total cpu time spent up to now is    26167.7 secs

     total energy              =  -15381.74257221 Ry
     Harris-Foulkes estimate   =  -15381.75826067 Ry
     estimated scf accuracy    <       0.15810029 Ry

     iteration #  9     ecut=    40.42 Ry     beta=0.15
     Davidson diagonalization with overlap
     ethr =  2.53E-05,  avg # of iterations =  2.3

     negative rho (up, down):  3.061E-03 0.000E+00

     total cpu time spent up to now is    28977.8 secs

     total energy              =  -15381.73111755 Ry
     Harris-Foulkes estimate   =  -15381.74604813 Ry
     estimated scf accuracy    <       0.18714997 Ry

     iteration # 10     ecut=    40.42 Ry     beta=0.15
     Davidson diagonalization with overlap
     ethr =  2.53E-05,  avg # of iterations =  1.7

     negative rho (up, down):  2.985E-03 0.000E+00

     total cpu time spent up to now is    32233.0 secs

     total energy              =  -15381.73334944 Ry
     Harris-Foulkes estimate   =  -15381.73513574 Ry
     estimated scf accuracy    <       0.09833576 Ry

     iteration # 11     ecut=    40.42 Ry     beta=0.15
     Davidson diagonalization with overlap
     ethr =  1.57E-05,  avg # of iterations =  1.0

     negative rho (up, down):  5.336E-03 0.000E+00

     total cpu time spent up to now is    35151.6 secs

     total energy              =  -15381.72747829 Ry
     Harris-Foulkes estimate   =  -15381.73390791 Ry
     estimated scf accuracy    <       0.08155125 Ry

     iteration # 12     ecut=    40.42 Ry     beta=0.15
     Davidson diagonalization with overlap
     ethr =  1.30E-05,  avg # of iterations =  2.7

     negative rho (up, down):  6.990E-03 0.000E+00

     total cpu time spent up to now is    37874.7 secs

     total energy              =  -15381.72909331 Ry
     Harris-Foulkes estimate   =  -15381.72957183 Ry
     estimated scf accuracy    <       0.04653002 Ry

     iteration # 13     ecut=    40.42 Ry     beta=0.15
     Davidson diagonalization with overlap
     ethr =  7.43E-06,  avg # of iterations =  1.8

     negative rho (up, down):  1.305E-02 0.000E+00

     total cpu time spent up to now is    40324.7 secs

     total energy              =  -15381.72810221 Ry
     Harris-Foulkes estimate   =  -15381.72932331 Ry
     estimated scf accuracy    <       0.04483084 Ry

     iteration # 14     ecut=    40.42 Ry     beta=0.15
     Davidson diagonalization with overlap
     ethr =  7.16E-06,  avg # of iterations =  2.0

     negative rho (up, down):  2.743E-02 0.000E+00

     total cpu time spent up to now is    42823.1 secs

     total energy              =  -15381.72650168 Ry
     Harris-Foulkes estimate   =  -15381.72860605 Ry
     estimated scf accuracy    <       0.03812685 Ry

     iteration # 15     ecut=    40.42 Ry     beta=0.15
     Davidson diagonalization with overlap
     ethr =  6.09E-06,  avg # of iterations =  2.5

     negative rho (up, down):  1.197E-01 0.000E+00

     total cpu time spent up to now is    45542.6 secs

     total energy              =  -15381.72092578 Ry
     Harris-Foulkes estimate   =  -15381.72679361 Ry
     estimated scf accuracy    <       0.03130868 Ry

     iteration # 16     ecut=    40.42 Ry     beta=0.15
     Davidson diagonalization with overlap
     ethr =  5.00E-06,  avg # of iterations = 12.0

     negative rho (up, down):  1.332E-01 0.000E+00

     total cpu time spent up to now is    49742.7 secs

     total energy              =  -15381.72254017 Ry
     Harris-Foulkes estimate   =  -15381.72311965 Ry
     estimated scf accuracy    <       0.01472306 Ry

     iteration # 17     ecut=    40.42 Ry     beta=0.15
     Davidson diagonalization with overlap
     ethr =  2.35E-06,  avg # of iterations =  5.6

     negative rho (up, down):  1.298E-01 0.000E+00

     total cpu time spent up to now is    53872.2 secs

     total energy              =  -15381.72156506 Ry
     Harris-Foulkes estimate   =  -15381.72277259 Ry
     estimated scf accuracy    <       0.01272146 Ry

     iteration # 18     ecut=    40.42 Ry     beta=0.15
     Davidson diagonalization with overlap
     ethr =  2.03E-06,  avg # of iterations =  2.0

     negative rho (up, down):  1.260E-01 0.000E+00

     total cpu time spent up to now is    56805.2 secs

     total energy              =  -15381.72053660 Ry
     Harris-Foulkes estimate   =  -15381.72178622 Ry
     estimated scf accuracy    <       0.01109123 Ry

     iteration # 19     ecut=    40.42 Ry     beta=0.15
     Davidson diagonalization with overlap
     ethr =  1.77E-06,  avg # of iterations =  3.0

     negative rho (up, down):  1.023E-01 0.000E+00

     total cpu time spent up to now is    60017.8 secs

     total energy              =  -15381.71797914 Ry
     Harris-Foulkes estimate   =  -15381.72080135 Ry
     estimated scf accuracy    <       0.00874618 Ry

     iteration # 20     ecut=    40.42 Ry     beta=0.15
     Davidson diagonalization with overlap
     ethr =  1.40E-06,  avg # of iterations =  2.6

     negative rho (up, down):  7.267E-02 0.000E+00

     total cpu time spent up to now is    63702.6 secs

     total energy              =  -15381.71672092 Ry
     Harris-Foulkes estimate   =  -15381.71825658 Ry
     estimated scf accuracy    <       0.00466473 Ry

     iteration # 21     ecut=    40.42 Ry     beta=0.15
     Davidson diagonalization with overlap
     c_bands:  1 eigenvalues not converged
     c_bands:  1 eigenvalues not converged
     ethr =  7.45E-07,  avg # of iterations = 10.7

     negative rho (up, down):  6.947E-02 0.000E+00

     total cpu time spent up to now is    67917.0 secs

     total energy              =  -15381.71694269 Ry
     Harris-Foulkes estimate   =  -15381.71720742 Ry
     estimated scf accuracy    <       0.00305300 Ry

     iteration # 22     ecut=    40.42 Ry     beta=0.15
     Davidson diagonalization with overlap
     c_bands:  1 eigenvalues not converged
     ethr =  4.88E-07,  avg # of iterations =  8.5

     negative rho (up, down):  6.677E-02 0.000E+00

     total cpu time spent up to now is    71239.7 secs

     total energy              =  -15381.71668343 Ry
     Harris-Foulkes estimate   =  -15381.71708635 Ry
     estimated scf accuracy    <       0.00209133 Ry

     iteration # 23     ecut=    40.42 Ry     beta=0.15
     Davidson diagonalization with overlap
     ethr =  3.34E-07,  avg # of iterations =  2.7

     negative rho (up, down):  6.491E-02 0.000E+00

     total cpu time spent up to now is    74686.8 secs

     total energy              =  -15381.71666711 Ry
     Harris-Foulkes estimate   =  -15381.71679997 Ry
     estimated scf accuracy    <       0.00118251 Ry

     iteration # 24     ecut=    40.42 Ry     beta=0.15
     Davidson diagonalization with overlap
     ethr =  1.89E-07,  avg # of iterations =  2.5

     negative rho (up, down):  6.016E-02 0.000E+00

     total cpu time spent up to now is    79652.1 secs

     total energy              =  -15381.71645806 Ry
     Harris-Foulkes estimate   =  -15381.71669956 Ry
     estimated scf accuracy    <       0.00087598 Ry

     iteration # 25     ecut=    40.42 Ry     beta=0.15
     Davidson diagonalization with overlap
     c_bands:  1 eigenvalues not converged
     ethr =  1.40E-07,  avg # of iterations =  6.5

     negative rho (up, down):  5.761E-02 0.000E+00

     total cpu time spent up to now is    83951.5 secs

     total energy              =  -15381.71642038 Ry
     Harris-Foulkes estimate   =  -15381.71651685 Ry
     estimated scf accuracy    <       0.00045321 Ry

     iteration # 26     ecut=    40.42 Ry     beta=0.15
     Davidson diagonalization with overlap
     c_bands:  1 eigenvalues not converged
