  python dir          : /gpfs/pace1/project/chbe-medford/medford-share/gits/frozen/ben_espresso_8_24_2017/espresso
  espresso dir        : /nv/hp22/amedford6/medford-shared/builds/espresso/5.1.r11289-pybeef/intel-16.0+mvapich2-2.2+mkl-11.3/espresso-5.1.r11289-pybeef/bin
  pseudo dir          : /gpfs/pace1/project/chbe-medford/medford-share/data/pseudos/SSSP_eff_PBE
  ase-espresso py git : GITVERSION



     Program PWSCF v.5.1rc2 starts on  9Feb2019 at 22:49:57 

     This program is part of the open-source Quantum ESPRESSO suite
     for quantum simulation of materials; please cite
         "P. Giannozzi et al., J. Phys.:Condens. Matter 21 395502 (2009);
          URL http://www.quantum-espresso.org", 
     in publications or presentations arising from this work. More details at
     http://www.quantum-espresso.org/quote

     Parallel version (MPI), running on    12 processors
     R & G space division:  proc/nbgrp/npool/nimage =      12
     Reading input from pw.inp
     Message from routine read_cards :
     DEPRECATED: no units specified in CELL_PARAMETERS card

     Current dimensions of program PWSCF are:
     Max number of different atomic species (ntypx) = 10
     Max number of k-points (npk) =  40000
     Max angular momentum in pseudopotentials (lmaxx) =  3

     IMPORTANT: XC functional enforced from input :
     Exchange-correlation      = PBE ( 1  4  3  4 0)
     Any further DFT definition will be discarded
     Please, verify this is what you really want

               file Rh.UPF: wavefunction(s)  4S 5S 4D renormalized

     Subspace diagonalization in iterative solution of the eigenvalue problem:
     a serial algorithm will be used

 
     Parallelization info
     --------------------
     sticks:   dense  smooth     PW     G-vecs:    dense   smooth      PW
     Min         783     384    101               171819    58733    7979
     Max         784     385    102               171832    58748    7990
     Sum        9403    4615   1213              2061923   704887   95807
 


     bravais-lattice index     =            0
     lattice parameter (alat)  =       1.8897  a.u.
     unit-cell volume          =   20303.1417 (a.u.)^3
     number of atoms/cell      =           47
     number of atomic types    =            4
     number of electrons       =       594.00
     number of Kohn-Sham states=          307
     kinetic-energy cutoff     =      40.4243  Ry
     charge density cutoff     =     330.7439  Ry
     convergence threshold     =      7.3E-07
     mixing beta               =       0.2000
     number of iterations used =            8  local-TF  mixing
     Exchange-correlation      = PBE ( 1  4  3  4 0)
     nstep                     =           50


     celldm(1)=   1.889726  celldm(2)=   0.000000  celldm(3)=   0.000000
     celldm(4)=   0.000000  celldm(5)=   0.000000  celldm(6)=   0.000000

     crystal axes: (cart. coord. in units of alat)
               a(1) = (  10.757640   0.000000   0.000000 )  
               a(2) = (  -5.378820   9.316389   0.000000 )  
               a(3) = (   0.000000   0.000000  30.019401 )  

     reciprocal axes: (cart. coord. in units 2 pi/alat)
               b(1) = (  0.092957  0.053669  0.000000 )  
               b(2) = (  0.000000  0.107338  0.000000 )  
               b(3) = (  0.000000  0.000000  0.033312 )  


     PseudoPot. # 1 for Rh read from file:
     /gpfs/pace1/project/chbe-medford/medford-share/data/pseudos/SSSP_eff_PBE/Rh.UPF
     MD5 check sum: ceb12254454c5aaeede670f925ab9aba
     Pseudo is Projector augmented-wave + core cor, Zval = 17.0
     Generated using "atomic" code by A. Dal Corso  v.5.1
     Shape of augmentation charge: PSQ
     Using radial grid of 1233 points,  6 beta functions with: 
                l(1) =   0
                l(2) =   0
                l(3) =   1
                l(4) =   1
                l(5) =   2
                l(6) =   2
     Q(r) pseudized with 0 coefficients 


     PseudoPot. # 2 for O  read from file:
     /gpfs/pace1/project/chbe-medford/medford-share/data/pseudos/SSSP_eff_PBE/O.UPF
     MD5 check sum: 734c27235a0248c51dbae37a1fbe46ec
     Pseudo is Ultrasoft + core correction, Zval =  6.0
     Generated by new atomic code, or converted to UPF format
     Using radial grid of  737 points,  5 beta functions with: 
                l(1) =   0
                l(2) =   0
                l(3) =   1
                l(4) =   1
                l(5) =   2
     Q(r) pseudized with  8 coefficients,  rinner =    0.900   0.900   0.900
                                                       0.900   0.900

     PseudoPot. # 3 for C  read from file:
     /gpfs/pace1/project/chbe-medford/medford-share/data/pseudos/SSSP_eff_PBE/C.UPF
     MD5 check sum: d1aef80898a10debaa0f26306b886e00
     Pseudo is Ultrasoft + core correction, Zval =  4.0
     Generated by new atomic code, or converted to UPF format
     Using radial grid of  721 points,  4 beta functions with: 
                l(1) =   0
                l(2) =   0
                l(3) =   1
                l(4) =   1
     Q(r) pseudized with  8 coefficients,  rinner =    1.100   1.100   1.100


     PseudoPot. # 4 for  H read from file:
     /gpfs/pace1/project/chbe-medford/medford-share/data/pseudos/SSSP_eff_PBE/H.UPF
     MD5 check sum: 36633979392af7100e6f6632747262d3
     Pseudo is Ultrasoft, Zval =  1.0
     Generated using "atomic" code by A. Dal Corso  v.5.0.99 svn rev. 10869
     Using radial grid of  929 points,  2 beta functions with: 
                l(1) =   0
                l(2) =   0
     Q(r) pseudized with 0 coefficients 


     atomic species   valence    mass     pseudopotential
        Rh1           17.00   102.90550     Rh( 1.00)
        O1             6.00    15.99940     O ( 1.00)
        C1             4.00    12.01100     C ( 1.00)
        H1             1.00     1.00794      H( 1.00)

     No symmetry found



   Cartesian axes

     site n.     atom                  positions (alat units)
         1           Rh1 tau(   1) = (   0.0000000   0.0000000  10.0000000  )
         2           Rh1 tau(   2) = (   1.3447050   0.7763658  12.1958940  )
         3           Rh1 tau(   3) = (  -1.3447050   2.3290973  10.0000000  )
         4           Rh1 tau(   4) = (   0.0000000   3.1054631  12.1958940  )
         5           Rh1 tau(   5) = (  -2.6894099   4.6581946  10.0000000  )
         6           Rh1 tau(   6) = (  -1.3447050   5.4345604  12.1958940  )
         7           Rh1 tau(   7) = (  -4.0341149   6.9872920  10.0000000  )
         8           Rh1 tau(   8) = (  -2.6894099   7.7636577  12.1958940  )
         9           Rh1 tau(   9) = (   2.6894099   0.0000000  10.0000000  )
        10           Rh1 tau(  10) = (   4.0341149   0.7763658  12.1958940  )
        11           Rh1 tau(  11) = (   1.3447050   2.3290973  10.0000000  )
        12           Rh1 tau(  12) = (   2.6894099   3.1054631  12.1958940  )
        13           Rh1 tau(  13) = (   0.0000000   4.6581946  10.0000000  )
        14           Rh1 tau(  14) = (   1.3447050   5.4345604  12.1958940  )
        15           Rh1 tau(  15) = (  -1.3447050   6.9872920  10.0000000  )
        16           Rh1 tau(  16) = (   0.0000000   7.7636577  12.1958940  )
        17           Rh1 tau(  17) = (   5.3788199   0.0000000  10.0000000  )
        18           Rh1 tau(  18) = (   6.7235248   0.7763658  12.1958940  )
        19           Rh1 tau(  19) = (   4.0341149   2.3290973  10.0000000  )
        20           Rh1 tau(  20) = (   5.3788199   3.1054631  12.1958940  )
        21           Rh1 tau(  21) = (   2.6894099   4.6581946  10.0000000  )
        22           Rh1 tau(  22) = (   4.0341149   5.4345604  12.1958940  )
        23           Rh1 tau(  23) = (   1.3447050   6.9872920  10.0000000  )
        24           Rh1 tau(  24) = (   2.6894099   7.7636577  12.1958940  )
        25           Rh1 tau(  25) = (   8.0682298   0.0000000  10.0000000  )
        26           Rh1 tau(  26) = (   9.4129348   0.7763658  12.1958940  )
        27           Rh1 tau(  27) = (   6.7235248   2.3290973  10.0000000  )
        28           Rh1 tau(  28) = (   8.0682298   3.1054631  12.1958940  )
        29           Rh1 tau(  29) = (   5.3788199   4.6581946  10.0000000  )
        30           Rh1 tau(  30) = (   6.7235248   5.4345604  12.1958940  )
        31           Rh1 tau(  31) = (   4.0341149   6.9872920  10.0000000  )
        32           Rh1 tau(  32) = (   5.3788199   7.7636577  12.1958940  )
        33           O1  tau(  33) = (   2.6890000   4.6580000  14.6958940  )
        34           O1  tau(  34) = (   4.7020351   5.9375000  18.2711730  )
        35           O1  tau(  35) = (   1.8682300   4.3051000  16.7880786  )
        36           O1  tau(  36) = (   4.7682155   4.4909000  20.0194009  )
        37           C1  tau(  37) = (   4.2576743   4.0411000  16.3347176  )
        38           C1  tau(  38) = (   4.4252348   3.6656000  17.7805409  )
        39           C1  tau(  39) = (   2.8094576   4.3317000  16.0093326  )
        40           C1  tau(  40) = (   4.6470857   4.7026000  18.8223979  )
        41           C1  tau(  41) = (   4.3531491   2.3928000  18.1992848  )
        42           H1  tau(  42) = (   4.8712465   4.9093000  16.0736558  )
        43           H1  tau(  43) = (   4.5817627   3.2100000  15.6956553  )
        44           H1  tau(  44) = (   4.1790862   1.5862000  17.4937991  )
        45           H1  tau(  45) = (   4.4615197   2.1106000  19.2411881  )
        46           H1  tau(  46) = (   1.7605546   4.8617000  14.4537795  )
        47           H1  tau(  47) = (   4.8489563   6.6347000  18.9454481  )

     number of k points=     4  Fermi-Dirac smearing, width (Ry)=  0.0073
                       cart. coord. in units 2pi/alat
        k(    1) = (   0.0000000   0.0000000   0.0000000), wk =   0.5000000
        k(    2) = (   0.0000000  -0.0536689   0.0000000), wk =   0.5000000
        k(    3) = (   0.0464786  -0.0268344   0.0000000), wk =   0.5000000
        k(    4) = (  -0.0464786  -0.0268344   0.0000000), wk =   0.5000000

     Dense  grid:  2061923 G-vectors     FFT dimensions: ( 120, 120, 360)

     Smooth grid:   704887 G-vectors     FFT dimensions: (  90,  90, 240)

     Largest allocated arrays     est. size (Mb)     dimensions
        Kohn-Sham Wavefunctions        34.76 Mb     (    7420,  307)
        NL pseudopotentials            76.99 Mb     (    7420,  680)
        Each V/rho on FFT grid          6.59 Mb     (  432000)
        Each G-vector array             1.31 Mb     (  171832)
        G-vector shells                 0.42 Mb     (   54959)
     Largest temporary arrays     est. size (Mb)     dimensions
        Auxiliary wavefunctions       139.03 Mb     (    7420, 1228)
        Each subspace H/S matrix       23.01 Mb     (    1228, 1228)
        Each <psi_i|beta_j> matrix      3.19 Mb     (     680,  307)
        Arrays for rho mixing          52.73 Mb     (  432000,    8)

     Check: negative/imaginary core charge=   -0.000001    0.000000

     Initial potential from superposition of free atoms
     Check: negative starting charge=   -0.062017

     starting charge  593.98406, renormalised to  594.00000

     negative rho (up, down):  6.202E-02 0.000E+00
     Starting wfc are  362 randomized atomic wfcs
     Checking if some PAW data can be deallocated... 

     total cpu time spent up to now is       49.6 secs

     per-process dynamical memory:   405.1 Mb

     Self-consistent Calculation

     iteration #  1     ecut=    40.42 Ry     beta=0.20
     Davidson diagonalization with overlap
     ethr =  1.00E-02,  avg # of iterations =  2.8

     negative rho (up, down):  4.616E-02 0.000E+00

     total cpu time spent up to now is      145.9 secs

     total energy              =  -15237.26199094 Ry
     Harris-Foulkes estimate   =  -15237.75508194 Ry
     estimated scf accuracy    <       6.34653087 Ry

     iteration #  2     ecut=    40.42 Ry     beta=0.20
     Davidson diagonalization with overlap
     ethr =  1.07E-03,  avg # of iterations =  3.0

     negative rho (up, down):  2.516E-02 0.000E+00

     total cpu time spent up to now is      229.7 secs

     total energy              =  -15236.03789943 Ry
     Harris-Foulkes estimate   =  -15237.43617991 Ry
     estimated scf accuracy    <       4.58924884 Ry

     iteration #  3     ecut=    40.42 Ry     beta=0.20
     Davidson diagonalization with overlap
     ethr =  7.73E-04,  avg # of iterations =  4.2

     negative rho (up, down):  2.196E-02 0.000E+00

     total cpu time spent up to now is      324.4 secs

     total energy              =  -15236.51816026 Ry
     Harris-Foulkes estimate   =  -15236.59402167 Ry
     estimated scf accuracy    <       1.14925415 Ry

     iteration #  4     ecut=    40.42 Ry     beta=0.20
     Davidson diagonalization with overlap
     ethr =  1.93E-04,  avg # of iterations =  1.8

     negative rho (up, down):  1.555E-02 0.000E+00

     total cpu time spent up to now is      407.6 secs

     total energy              =  -15236.38802165 Ry
     Harris-Foulkes estimate   =  -15236.54117530 Ry
     estimated scf accuracy    <       0.68384186 Ry

     iteration #  5     ecut=    40.42 Ry     beta=0.20
     Davidson diagonalization with overlap
     ethr =  1.15E-04,  avg # of iterations =  3.8

     negative rho (up, down):  1.249E-02 0.000E+00

     total cpu time spent up to now is      497.4 secs

     total energy              =  -15236.40056768 Ry
     Harris-Foulkes estimate   =  -15236.43218739 Ry
     estimated scf accuracy    <       0.24713711 Ry

     iteration #  6     ecut=    40.42 Ry     beta=0.20
     Davidson diagonalization with overlap
     ethr =  4.16E-05,  avg # of iterations =  3.5

     negative rho (up, down):  7.300E-03 0.000E+00

     total cpu time spent up to now is      584.1 secs

     total energy              =  -15236.37588796 Ry
     Harris-Foulkes estimate   =  -15236.41220374 Ry
     estimated scf accuracy    <       0.17695348 Ry

     iteration #  7     ecut=    40.42 Ry     beta=0.20
     Davidson diagonalization with overlap
     ethr =  2.98E-05,  avg # of iterations =  3.2

     negative rho (up, down):  5.668E-03 0.000E+00

     total cpu time spent up to now is      669.4 secs

     total energy              =  -15236.37307208 Ry
     Harris-Foulkes estimate   =  -15236.38436711 Ry
     estimated scf accuracy    <       0.16631590 Ry

     iteration #  8     ecut=    40.42 Ry     beta=0.20
     Davidson diagonalization with overlap
     ethr =  2.80E-05,  avg # of iterations =  1.5

     negative rho (up, down):  4.311E-03 0.000E+00

     total cpu time spent up to now is      750.3 secs

     total energy              =  -15236.36291699 Ry
     Harris-Foulkes estimate   =  -15236.37470057 Ry
     estimated scf accuracy    <       0.14441738 Ry

     iteration #  9     ecut=    40.42 Ry     beta=0.20
     Davidson diagonalization with overlap
     ethr =  2.43E-05,  avg # of iterations =  5.5

     negative rho (up, down):  4.113E-03 0.000E+00

     total cpu time spent up to now is      838.2 secs

     total energy              =  -15236.36284423 Ry
     Harris-Foulkes estimate   =  -15236.36609894 Ry
     estimated scf accuracy    <       0.07825071 Ry

     iteration # 10     ecut=    40.42 Ry     beta=0.20
     Davidson diagonalization with overlap
     ethr =  1.32E-05,  avg # of iterations =  2.2

     negative rho (up, down):  1.359E-02 0.000E+00

     total cpu time spent up to now is      919.7 secs

     total energy              =  -15236.35967746 Ry
     Harris-Foulkes estimate   =  -15236.36397982 Ry
     estimated scf accuracy    <       0.06731284 Ry

     iteration # 11     ecut=    40.42 Ry     beta=0.20
     Davidson diagonalization with overlap
     ethr =  1.13E-05,  avg # of iterations =  3.0

     negative rho (up, down):  1.410E-02 0.000E+00

     total cpu time spent up to now is     1004.7 secs

     total energy              =  -15236.36007153 Ry
     Harris-Foulkes estimate   =  -15236.36181057 Ry
     estimated scf accuracy    <       0.05723748 Ry

     iteration # 12     ecut=    40.42 Ry     beta=0.20
     Davidson diagonalization with overlap
     ethr =  9.64E-06,  avg # of iterations =  1.5

     negative rho (up, down):  1.340E-01 0.000E+00

     total cpu time spent up to now is     1086.1 secs

     total energy              =  -15236.35734362 Ry
     Harris-Foulkes estimate   =  -15236.36057617 Ry
     estimated scf accuracy    <       0.04381519 Ry

     iteration # 13     ecut=    40.42 Ry     beta=0.20
     Davidson diagonalization with overlap
     ethr =  7.38E-06,  avg # of iterations =  2.0

     negative rho (up, down):  1.862E-01 0.000E+00

     total cpu time spent up to now is     1168.3 secs

     total energy              =  -15236.35879916 Ry
     Harris-Foulkes estimate   =  -15236.35844908 Ry
     estimated scf accuracy    <       0.02423775 Ry

     iteration # 14     ecut=    40.42 Ry     beta=0.20
     Davidson diagonalization with overlap
     c_bands:  1 eigenvalues not converged
     ethr =  4.08E-06,  avg # of iterations =  6.8

     negative rho (up, down):  1.433E-01 0.000E+00

     total cpu time spent up to now is     1257.5 secs

     total energy              =  -15236.35415026 Ry
     Harris-Foulkes estimate   =  -15236.35932032 Ry
     estimated scf accuracy    <       0.02014837 Ry

     iteration # 15     ecut=    40.42 Ry     beta=0.20
     Davidson diagonalization with overlap
     c_bands:  1 eigenvalues not converged
     ethr =  3.39E-06,  avg # of iterations =  8.8

     negative rho (up, down):  1.554E-01 0.000E+00

     total cpu time spent up to now is     1352.6 secs

     total energy              =  -15236.35300157 Ry
     Harris-Foulkes estimate   =  -15236.35485668 Ry
     estimated scf accuracy    <       0.01433776 Ry

     iteration # 16     ecut=    40.42 Ry     beta=0.20
     Davidson diagonalization with overlap
     ethr =  2.41E-06,  avg # of iterations =  5.8

     negative rho (up, down):  1.449E-01 0.000E+00

     total cpu time spent up to now is     1442.4 secs

     total energy              =  -15236.35091449 Ry
     Harris-Foulkes estimate   =  -15236.35359758 Ry
     estimated scf accuracy    <       0.01223686 Ry

     iteration # 17     ecut=    40.42 Ry     beta=0.20
     Davidson diagonalization with overlap
     ethr =  2.06E-06,  avg # of iterations =  4.0

     negative rho (up, down):  1.249E-01 0.000E+00

     total cpu time spent up to now is     1525.5 secs

     total energy              =  -15236.34864931 Ry
     Harris-Foulkes estimate   =  -15236.35113404 Ry
     estimated scf accuracy    <       0.00790093 Ry

     iteration # 18     ecut=    40.42 Ry     beta=0.20
     Davidson diagonalization with overlap
     ethr =  1.33E-06,  avg # of iterations =  3.0

     negative rho (up, down):  1.149E-01 0.000E+00

     total cpu time spent up to now is     1609.8 secs

     total energy              =  -15236.34806905 Ry
     Harris-Foulkes estimate   =  -15236.34887760 Ry
     estimated scf accuracy    <       0.00461797 Ry

     iteration # 19     ecut=    40.42 Ry     beta=0.20
     Davidson diagonalization with overlap
     ethr =  7.77E-07,  avg # of iterations =  8.5

     negative rho (up, down):  8.668E-02 0.000E+00

     total cpu time spent up to now is     1702.6 secs

     total energy              =  -15236.34693819 Ry
     Harris-Foulkes estimate   =  -15236.34820879 Ry
     estimated scf accuracy    <       0.00337262 Ry

     iteration # 20     ecut=    40.42 Ry     beta=0.20
     Davidson diagonalization with overlap
     ethr =  5.68E-07,  avg # of iterations =  3.0

     negative rho (up, down):  8.367E-02 0.000E+00

     total cpu time spent up to now is     1786.3 secs

     total energy              =  -15236.34666777 Ry
     Harris-Foulkes estimate   =  -15236.34702472 Ry
     estimated scf accuracy    <       0.00191582 Ry

     iteration # 21     ecut=    40.42 Ry     beta=0.20
     Davidson diagonalization with overlap
     ethr =  3.23E-07,  avg # of iterations =  6.5

     negative rho (up, down):  7.718E-02 0.000E+00

     total cpu time spent up to now is     1876.8 secs

     total energy              =  -15236.34635303 Ry
     Harris-Foulkes estimate   =  -15236.34671156 Ry
     estimated scf accuracy    <       0.00120610 Ry

     iteration # 22     ecut=    40.42 Ry     beta=0.20
     Davidson diagonalization with overlap
     c_bands:  1 eigenvalues not converged
     ethr =  2.03E-07,  avg # of iterations = 16.8

     negative rho (up, down):  7.212E-02 0.000E+00

     total cpu time spent up to now is     1998.0 secs

     total energy              =  -15236.34631493 Ry
     Harris-Foulkes estimate   =  -15236.34645462 Ry
     estimated scf accuracy    <       0.00052974 Ry

     iteration # 23     ecut=    40.42 Ry     beta=0.20
     Davidson diagonalization with overlap
     c_bands:  2 eigenvalues not converged
     ethr =  8.92E-08,  avg # of iterations = 12.5

     negative rho (up, down):  6.962E-02 0.000E+00

     total cpu time spent up to now is     2097.1 secs

     total energy              =  -15236.34627488 Ry
     Harris-Foulkes estimate   =  -15236.34633196 Ry
     estimated scf accuracy    <       0.00030642 Ry

     iteration # 24     ecut=    40.42 Ry     beta=0.20
     Davidson diagonalization with overlap
     c_bands:  2 eigenvalues not converged
     ethr =  5.16E-08,  avg # of iterations =  9.0

     negative rho (up, down):  7.033E-02 0.000E+00

     total cpu time spent up to now is     2188.1 secs

     total energy              =  -15236.34624309 Ry
     Harris-Foulkes estimate   =  -15236.34628106 Ry
     estimated scf accuracy    <       0.00022632 Ry

     iteration # 25     ecut=    40.42 Ry     beta=0.20
     Davidson diagonalization with overlap
     ethr =  3.81E-08,  avg # of iterations =  7.0

     negative rho (up, down):  7.308E-02 0.000E+00

     total cpu time spent up to now is     2278.5 secs

     total energy              =  -15236.34623103 Ry
     Harris-Foulkes estimate   =  -15236.34625032 Ry
     estimated scf accuracy    <       0.00015172 Ry

     iteration # 26     ecut=    40.42 Ry     beta=0.20
     Davidson diagonalization with overlap
     ethr =  2.55E-08,  avg # of iterations =  1.0

     negative rho (up, down):  7.591E-02 0.000E+00

     total cpu time spent up to now is     2357.7 secs

     total energy              =  -15236.34620858 Ry
     Harris-Foulkes estimate   =  -15236.34623266 Ry
     estimated scf accuracy    <       0.00010034 Ry

     iteration # 27     ecut=    40.42 Ry     beta=0.20
     Davidson diagonalization with overlap
     ethr =  1.69E-08,  avg # of iterations =  5.2

     negative rho (up, down):  7.603E-02 0.000E+00

     total cpu time spent up to now is     2442.7 secs

     total energy              =  -15236.34619551 Ry
     Harris-Foulkes estimate   =  -15236.34621107 Ry
     estimated scf accuracy    <       0.00006181 Ry

     iteration # 28     ecut=    40.42 Ry     beta=0.20
     Davidson diagonalization with overlap
     ethr =  1.04E-08,  avg # of iterations =  3.0

     negative rho (up, down):  7.591E-02 0.000E+00

     total cpu time spent up to now is     2527.5 secs

     total energy              =  -15236.34619236 Ry
     Harris-Foulkes estimate   =  -15236.34619712 Ry
     estimated scf accuracy    <       0.00004423 Ry

     iteration # 29     ecut=    40.42 Ry     beta=0.20
     Davidson diagonalization with overlap
     ethr =  7.45E-09,  avg # of iterations =  1.0

     negative rho (up, down):  7.293E-02 0.000E+00

     total cpu time spent up to now is     2606.9 secs

     total energy              =  -15236.34618907 Ry
     Harris-Foulkes estimate   =  -15236.34619274 Ry
     estimated scf accuracy    <       0.00003685 Ry

     iteration # 30     ecut=    40.42 Ry     beta=0.20
     Davidson diagonalization with overlap
     c_bands:  2 eigenvalues not converged
     ethr =  6.20E-09,  avg # of iterations = 13.0

     negative rho (up, down):  7.313E-02 0.000E+00

     total cpu time spent up to now is     2716.1 secs

     total energy              =  -15236.34619431 Ry
     Harris-Foulkes estimate   =  -15236.34619416 Ry
     estimated scf accuracy    <       0.00007706 Ry

     iteration # 31     ecut=    40.42 Ry     beta=0.20
     Davidson diagonalization with overlap
     ethr =  6.20E-09,  avg # of iterations =  5.8

     negative rho (up, down):  7.290E-02 0.000E+00

     total cpu time spent up to now is     2804.2 secs

     total energy              =  -15236.34619423 Ry
     Harris-Foulkes estimate   =  -15236.34619458 Ry
     estimated scf accuracy    <       0.00007809 Ry

     iteration # 32     ecut=    40.42 Ry     beta=0.20
     Davidson diagonalization with overlap
     ethr =  6.20E-09,  avg # of iterations =  1.0

     negative rho (up, down):  7.318E-02 0.000E+00

     total cpu time spent up to now is     2884.8 secs

     total energy              =  -15236.34619454 Ry
     Harris-Foulkes estimate   =  -15236.34619433 Ry
     estimated scf accuracy    <       0.00007603 Ry

     iteration # 33     ecut=    40.42 Ry     beta=0.20
     Davidson diagonalization with overlap
     ethr =  6.20E-09,  avg # of iterations =  1.2

     negative rho (up, down):  7.307E-02 0.000E+00

     total cpu time spent up to now is     2963.2 secs

     total energy              =  -15236.34619377 Ry
     Harris-Foulkes estimate   =  -15236.34619469 Ry
     estimated scf accuracy    <       0.00007975 Ry

     iteration # 34     ecut=    40.42 Ry     beta=0.20
     Davidson diagonalization with overlap
     ethr =  6.20E-09,  avg # of iterations =  1.0

     negative rho (up, down):  7.455E-02 0.000E+00

     total cpu time spent up to now is     3041.9 secs

     total energy              =  -15236.34619347 Ry
     Harris-Foulkes estimate   =  -15236.34619393 Ry
     estimated scf accuracy    <       0.00007868 Ry

     iteration # 35     ecut=    40.42 Ry     beta=0.20
     Davidson diagonalization with overlap
     ethr =  6.20E-09,  avg # of iterations =  2.0

     negative rho (up, down):  7.389E-02 0.000E+00

     total cpu time spent up to now is     3123.5 secs

     total energy              =  -15236.34619386 Ry
     Harris-Foulkes estimate   =  -15236.34619399 Ry
     estimated scf accuracy    <       0.00007681 Ry

     iteration # 36     ecut=    40.42 Ry     beta=0.20
     Davidson diagonalization with overlap
     ethr =  6.20E-09,  avg # of iterations =  1.0

     negative rho (up, down):  7.349E-02 0.000E+00

     total cpu time spent up to now is     3203.7 secs

     total energy              =  -15236.34619476 Ry
     Harris-Foulkes estimate   =  -15236.34619395 Ry
     estimated scf accuracy    <       0.00007881 Ry

     iteration # 37     ecut=    40.42 Ry     beta=0.20
     Davidson diagonalization with overlap
     ethr =  6.20E-09,  avg # of iterations =  1.0

     negative rho (up, down):  7.346E-02 0.000E+00

     total cpu time spent up to now is     3283.4 secs

     total energy              =  -15236.34619479 Ry
     Harris-Foulkes estimate   =  -15236.34619490 Ry
     estimated scf accuracy    <       0.00008512 Ry

     iteration # 38     ecut=    40.42 Ry     beta=0.20
     Davidson diagonalization with overlap
     ethr =  6.20E-09,  avg # of iterations =  2.0

     negative rho (up, down):  7.486E-02 0.000E+00

     total cpu time spent up to now is     3366.0 secs

     total energy              =  -15236.34618506 Ry
     Harris-Foulkes estimate   =  -15236.34619495 Ry
     estimated scf accuracy    <       0.00008190 Ry

     iteration # 39     ecut=    40.42 Ry     beta=0.20
     Davidson diagonalization with overlap
     c_bands:  1 eigenvalues not converged
     c_bands:  1 eigenvalues not converged
     ethr =  6.20E-09,  avg # of iterations = 15.0

     negative rho (up, down):  7.389E-02 0.000E+00

     total cpu time spent up to now is     3481.4 secs

     total energy              =  -15236.34618589 Ry
     Harris-Foulkes estimate   =  -15236.34619146 Ry
     estimated scf accuracy    <       0.00004899 Ry

     iteration # 40     ecut=    40.42 Ry     beta=0.20
     Davidson diagonalization with overlap
     ethr =  6.20E-09,  avg # of iterations =  6.0

     negative rho (up, down):  7.422E-02 0.000E+00

     total cpu time spent up to now is     3572.0 secs

     total energy              =  -15236.34618291 Ry
     Harris-Foulkes estimate   =  -15236.34618718 Ry
     estimated scf accuracy    <       0.00002923 Ry

     iteration # 41     ecut=    40.42 Ry     beta=0.20
     Davidson diagonalization with overlap
     c_bands:  2 eigenvalues not converged
     ethr =  4.92E-09,  avg # of iterations = 10.0

     negative rho (up, down):  7.397E-02 0.000E+00

     total cpu time spent up to now is     3669.0 secs

     total energy              =  -15236.34618542 Ry
     Harris-Foulkes estimate   =  -15236.34618735 Ry
     estimated scf accuracy    <       0.00004480 Ry

     iteration # 42     ecut=    40.42 Ry     beta=0.20
     Davidson diagonalization with overlap
     c_bands:  1 eigenvalues not converged
     ethr =  4.92E-09,  avg # of iterations =  5.8

     negative rho (up, down):  7.350E-02 0.000E+00

     total cpu time spent up to now is     3756.0 secs

     total energy              =  -15236.34618368 Ry
     Harris-Foulkes estimate   =  -15236.34618675 Ry
     estimated scf accuracy    <       0.00003440 Ry

     iteration # 43     ecut=    40.42 Ry     beta=0.20
     Davidson diagonalization with overlap
     c_bands:  1 eigenvalues not converged
     ethr =  4.92E-09,  avg # of iterations =  6.5

     negative rho (up, down):  7.319E-02 0.000E+00

     total cpu time spent up to now is     3843.3 secs

     total energy              =  -15236.34618329 Ry
     Harris-Foulkes estimate   =  -15236.34618433 Ry
     estimated scf accuracy    <       0.00001940 Ry

     iteration # 44     ecut=    40.42 Ry     beta=0.20
     Davidson diagonalization with overlap
     c_bands:  1 eigenvalues not converged
     ethr =  3.27E-09,  avg # of iterations =  5.8

     negative rho (up, down):  7.233E-02 0.000E+00

     total cpu time spent up to now is     3928.8 secs

     total energy              =  -15236.34618054 Ry
     Harris-Foulkes estimate   =  -15236.34618345 Ry
     estimated scf accuracy    <       0.00001529 Ry

     iteration # 45     ecut=    40.42 Ry     beta=0.20
     Davidson diagonalization with overlap
     c_bands:  1 eigenvalues not converged
     c_bands:  2 eigenvalues not converged
     ethr =  2.57E-09,  avg # of iterations = 12.5

     negative rho (up, down):  7.260E-02 0.000E+00

     total cpu time spent up to now is     4029.2 secs

     total energy              =  -15236.34618131 Ry
     Harris-Foulkes estimate   =  -15236.34618186 Ry
     estimated scf accuracy    <       0.00001417 Ry

     iteration # 46     ecut=    40.42 Ry     beta=0.20
     Davidson diagonalization with overlap
     c_bands:  1 eigenvalues not converged
     c_bands:  2 eigenvalues not converged
     ethr =  2.38E-09,  avg # of iterations = 10.5

     negative rho (up, down):  7.295E-02 0.000E+00

     total cpu time spent up to now is     4123.8 secs

     total energy              =  -15236.34618124 Ry
     Harris-Foulkes estimate   =  -15236.34618198 Ry
     estimated scf accuracy    <       0.00001298 Ry

     iteration # 47     ecut=    40.42 Ry     beta=0.20
     Davidson diagonalization with overlap
     c_bands:  1 eigenvalues not converged
     c_bands:  2 eigenvalues not converged
     ethr =  2.18E-09,  avg # of iterations = 11.0

     negative rho (up, down):  7.305E-02 0.000E+00

     total cpu time spent up to now is     4220.7 secs

     total energy              =  -15236.34618074 Ry
     Harris-Foulkes estimate   =  -15236.34618155 Ry
     estimated scf accuracy    <       0.00001116 Ry

     iteration # 48     ecut=    40.42 Ry     beta=0.20
     Davidson diagonalization with overlap
     c_bands:  1 eigenvalues not converged
     ethr =  1.88E-09,  avg # of iterations =  9.2

     negative rho (up, down):  7.291E-02 0.000E+00

     total cpu time spent up to now is     4311.0 secs

     total energy              =  -15236.34617980 Ry
     Harris-Foulkes estimate   =  -15236.34618098 Ry
     estimated scf accuracy    <       0.00000739 Ry

     iteration # 49     ecut=    40.42 Ry     beta=0.20
     Davidson diagonalization with overlap
     c_bands:  1 eigenvalues not converged
     ethr =  1.24E-09,  avg # of iterations = 10.2

     negative rho (up, down):  7.273E-02 0.000E+00

     total cpu time spent up to now is     4405.3 secs

     total energy              =  -15236.34617917 Ry
     Harris-Foulkes estimate   =  -15236.34618006 Ry
     estimated scf accuracy    <       0.00000433 Ry

     iteration # 50     ecut=    40.42 Ry     beta=0.20
     Davidson diagonalization with overlap
     c_bands:  5 eigenvalues not converged
     c_bands:  1 eigenvalues not converged
     c_bands:  1 eigenvalues not converged
     c_bands:  2 eigenvalues not converged
     ethr =  7.29E-10,  avg # of iterations = 20.0

     negative rho (up, down):  7.233E-02 0.000E+00

     total cpu time spent up to now is     4519.0 secs

     total energy              =  -15236.34617888 Ry
     Harris-Foulkes estimate   =  -15236.34617948 Ry
     estimated scf accuracy    <       0.00000290 Ry

     iteration # 51     ecut=    40.42 Ry     beta=0.20
     Davidson diagonalization with overlap
     c_bands:  5 eigenvalues not converged
     c_bands:  1 eigenvalues not converged
     c_bands:  1 eigenvalues not converged
     c_bands:  2 eigenvalues not converged
     ethr =  4.88E-10,  avg # of iterations = 20.0

     negative rho (up, down):  7.198E-02 0.000E+00

     total cpu time spent up to now is     4632.7 secs

     total energy              =  -15236.34617867 Ry
     Harris-Foulkes estimate   =  -15236.34617913 Ry
     estimated scf accuracy    <       0.00000217 Ry

     iteration # 52     ecut=    40.42 Ry     beta=0.20
     Davidson diagonalization with overlap
     c_bands:  1 eigenvalues not converged
     c_bands:  1 eigenvalues not converged
     c_bands:  1 eigenvalues not converged
     c_bands:  2 eigenvalues not converged
     ethr =  3.66E-10,  avg # of iterations = 20.0

     negative rho (up, down):  7.169E-02 0.000E+00

     total cpu time spent up to now is     4744.8 secs

     total energy              =  -15236.34617871 Ry
     Harris-Foulkes estimate   =  -15236.34617882 Ry
     estimated scf accuracy    <       0.00000106 Ry

     iteration # 53     ecut=    40.42 Ry     beta=0.20
     Davidson diagonalization with overlap
     c_bands:  4 eigenvalues not converged
     c_bands:  1 eigenvalues not converged
     c_bands:  1 eigenvalues not converged
     c_bands:  1 eigenvalues not converged
     ethr =  1.79E-10,  avg # of iterations = 20.0

     negative rho (up, down):  7.185E-02 0.000E+00

     total cpu time spent up to now is     4852.0 secs

     End of self-consistent calculation

          k = 0.0000 0.0000 0.0000 ( 88237 PWs)   bands (ev):

   -79.4448 -79.4032 -79.4023 -79.4018 -79.4009 -79.4004 -79.3954 -79.3894
   -79.3627 -79.3616 -79.3604 -79.3597 -79.3593 -79.3570 -79.3550 -79.3538
   -79.3527 -79.3522 -79.3520 -79.3504 -79.3500 -79.3466 -79.3424 -79.3363
   -79.3351 -79.3345 -79.3338 -79.3335 -79.3313 -79.3305 -79.3264 -79.3072
   -47.5929 -47.5926 -47.5924 -47.5411 -47.5407 -47.5403 -47.4833 -47.4826
   -47.4823 -47.4814 -47.4806 -47.4800 -47.4548 -47.4542 -47.4531 -47.4527
   -47.4523 -47.4515 -47.3203 -47.3182 -47.3178 -47.3173 -47.3172 -47.3153
   -47.3000 -47.2988 -47.2983 -47.2970 -47.2966 -47.2947 -47.2940 -47.2714
   -47.2691 -47.2684 -47.2682 -47.2671 -47.2649 -47.2065 -47.2053 -47.2044
   -47.2043 -47.2027 -47.2009 -47.1605 -47.1589 -47.1575 -47.1499 -47.1497
   -47.1490 -47.1486 -47.1480 -47.1447 -47.0890 -47.0880 -47.0875 -47.0873
   -47.0854 -47.0837 -47.0792 -47.0771 -47.0757 -47.0711 -47.0678 -47.0659
   -47.0594 -47.0559 -47.0550 -47.0538 -47.0529 -47.0461 -47.0158 -47.0147
   -47.0140 -47.0135 -47.0117 -47.0100 -47.0059 -47.0058 -46.9576 -46.9571
   -46.9548 -46.9498 -46.9493 -46.9474 -46.9437 -46.9418 -46.9413 -46.9394
   -46.9370 -46.9134 -46.9116 -46.9106 -46.9103 -46.9096 -46.9077 -46.8918
   -23.9010 -23.4485 -21.5481 -21.0540 -16.5580 -14.3544 -12.6400 -11.7153
    -9.7475  -8.4461  -8.3618  -8.0085  -7.5608  -7.3088  -7.2552  -6.7449
    -6.3695  -6.3559  -6.2316  -6.2297  -6.2295  -5.9744  -5.9026  -5.8965
    -5.8961  -5.8959  -5.8951  -5.8889  -5.8878  -5.8861  -5.8365  -5.7772
    -5.5271  -5.5226  -5.5111  -5.4029  -5.3448  -5.3445  -5.3432  -5.3430
    -5.3403  -5.3334  -5.2709  -5.2696  -5.2694  -5.2688  -5.2672  -5.2628
    -4.8404  -4.8352  -4.8336  -4.8330  -4.8328  -4.8294  -4.7995  -4.7585
    -4.7580  -4.7577  -4.7569  -4.7566  -4.7526  -4.5745  -4.5714  -4.5706
    -4.5697  -4.5692  -4.5572  -4.1669  -4.0310  -4.0262  -4.0036  -3.7440
    -3.7394  -3.7390  -3.7374  -3.7359  -3.7351  -3.7224  -3.6645  -3.6612
    -3.6601  -3.6597  -3.6569  -3.6499  -3.6409  -3.4756  -3.4755  -3.4103
    -3.4081  -3.4076  -3.4073  -3.4053  -3.3943  -3.2997  -3.2997  -3.2502
    -3.2479  -3.2454  -3.2450  -3.2440  -3.2425  -3.1965  -3.1883  -3.1882
    -3.1865  -3.1823  -3.1743  -2.9455  -2.9310  -2.9277  -2.9273  -2.9256
    -2.9256  -2.8939  -2.8672  -2.8661  -2.8653  -2.8635  -2.8607  -2.7489
    -2.7470  -2.7461  -2.7220  -2.5999  -2.5022  -2.5012  -2.5007  -2.4998
    -2.4993  -2.4985  -2.2239  -2.0440  -2.0380  -2.0356  -2.0338  -2.0273
    -1.9938  -1.9925  -1.9922  -1.9915  -1.9910  -1.9903  -1.9722  -1.8313
    -1.8161  -1.8140  -1.7391  -1.5110  -1.5095  -1.5081  -1.5069  -1.5054
    -1.5049  -1.5045  -1.5041  -1.4874  -1.4866  -1.4864  -1.4857  -1.4852
    -1.4846  -1.3414  -1.3293  -1.3286  -1.3263  -1.3216  -1.2946  -1.2313
    -1.2294  -1.2247  -0.8179  -0.8157  -0.8147  -0.5833  -0.5828  -0.5802
    -0.5792  -0.5788  -0.5778

          k = 0.0000-0.0537 0.0000 ( 88092 PWs)   bands (ev):

   -79.4331 -79.4312 -79.4115 -79.4086 -79.3823 -79.3816 -79.3800 -79.3771
   -79.3764 -79.3740 -79.3692 -79.3679 -79.3642 -79.3631 -79.3528 -79.3525
   -79.3512 -79.3495 -79.3480 -79.3455 -79.3440 -79.3428 -79.3400 -79.3391
   -79.3372 -79.3366 -79.3339 -79.3336 -79.3328 -79.3294 -79.3265 -79.3072
   -47.5486 -47.5480 -47.5468 -47.5452 -47.5157 -47.5144 -47.5025 -47.5022
   -47.5008 -47.4993 -47.4910 -47.4881 -47.4691 -47.4675 -47.4457 -47.4438
   -47.4225 -47.4214 -47.4199 -47.4191 -47.3957 -47.3949 -47.3924 -47.3918
   -47.3394 -47.3367 -47.2811 -47.2799 -47.2780 -47.2749 -47.2711 -47.2689
   -47.2344 -47.2317 -47.2137 -47.2133 -47.2115 -47.2113 -47.1709 -47.1692
   -47.1672 -47.1654 -47.1462 -47.1454 -47.1420 -47.1392 -47.1355 -47.1354
   -47.1341 -47.1336 -47.1133 -47.1117 -47.1098 -47.1089 -47.1055 -47.1037
   -47.0939 -47.0922 -47.0761 -47.0748 -47.0734 -47.0721 -47.0620 -47.0599
   -47.0592 -47.0575 -47.0563 -47.0560 -47.0539 -47.0527 -47.0296 -47.0271
   -47.0237 -47.0222 -47.0163 -47.0129 -47.0116 -47.0097 -46.9716 -46.9710
   -46.9686 -46.9672 -46.9482 -46.9471 -46.9464 -46.9432 -46.9323 -46.9304
   -46.9231 -46.9212 -46.9186 -46.9153 -46.9095 -46.9079 -46.9072 -46.8926
   -23.9010 -23.4485 -21.5481 -21.0540 -16.5580 -14.3544 -12.6399 -11.7153
    -9.7475  -8.4459  -8.3618  -8.0073  -7.5608  -7.2614  -6.7911  -6.7820
    -6.7314  -6.3553  -6.0402  -6.0353  -5.9960  -5.9510  -5.9096  -5.8972
    -5.8603  -5.8283  -5.8052  -5.8040  -5.8033  -5.7685  -5.6787  -5.6737
    -5.5246  -5.5224  -5.5217  -5.5171  -5.4642  -5.4489  -5.4479  -5.4399
    -5.3904  -5.3116  -5.3102  -5.3097  -5.3010  -5.2593  -5.2553  -5.2349
    -5.2321  -5.1842  -5.1831  -5.0993  -5.0990  -5.0973  -5.0944  -4.8894
    -4.8870  -4.8859  -4.8773  -4.8085  -4.7968  -4.7883  -4.7404  -4.7373
    -4.2998  -4.2974  -4.1573  -4.0565  -4.0519  -3.8841  -3.8831  -3.8818
    -3.8785  -3.8617  -3.8555  -3.8544  -3.8363  -3.7177  -3.7159  -3.7067
    -3.7062  -3.7040  -3.7033  -3.7003  -3.6959  -3.6483  -3.6458  -3.6378
    -3.5529  -3.5495  -3.4906  -3.4869  -3.4293  -3.4279  -3.4274  -3.4195
    -3.0883  -3.0868  -3.0767  -3.0672  -3.0664  -3.0661  -3.0645  -3.0641
    -3.0622  -3.0608  -3.0567  -3.0517  -2.9536  -2.9514  -2.9241  -2.9211
    -2.8285  -2.8225  -2.7563  -2.6768  -2.6444  -2.6429  -2.5744  -2.5729
    -2.5719  -2.5708  -2.5457  -2.5398  -2.4821  -2.4302  -2.2570  -2.2474
    -2.2466  -2.2444  -2.2215  -2.2155  -2.2061  -2.1369  -2.1345  -2.0173
    -1.9911  -1.8361  -1.8323  -1.8320  -1.8299  -1.7222  -1.7146  -1.7080
    -1.7058  -1.6976  -1.6941  -1.6874  -1.6443  -1.6429  -1.5977  -1.5772
    -1.5735  -1.3817  -1.3746  -1.1578  -1.1556  -1.1553  -1.1511  -1.0975
    -1.0963  -1.0954  -1.0915  -0.9807  -0.9736  -0.9734  -0.9725  -0.9516
    -0.9461  -0.9382  -0.9363  -0.8327  -0.8246  -0.7501  -0.7432  -0.7289
    -0.7065  -0.6912  -0.6897

          k = 0.0465-0.0268 0.0000 ( 88092 PWs)   bands (ev):

   -79.4326 -79.4317 -79.4113 -79.4086 -79.3834 -79.3809 -79.3795 -79.3774
   -79.3762 -79.3742 -79.3699 -79.3668 -79.3657 -79.3613 -79.3539 -79.3528
   -79.3512 -79.3501 -79.3465 -79.3451 -79.3440 -79.3425 -79.3397 -79.3389
   -79.3388 -79.3368 -79.3344 -79.3338 -79.3311 -79.3303 -79.3261 -79.3072
   -47.5476 -47.5475 -47.5468 -47.5463 -47.5160 -47.5147 -47.5021 -47.5017
   -47.5007 -47.5004 -47.4913 -47.4881 -47.4689 -47.4675 -47.4461 -47.4433
   -47.4224 -47.4214 -47.4200 -47.4181 -47.3964 -47.3945 -47.3945 -47.3905
   -47.3393 -47.3365 -47.2810 -47.2797 -47.2783 -47.2745 -47.2708 -47.2693
   -47.2344 -47.2318 -47.2153 -47.2136 -47.2119 -47.2094 -47.1696 -47.1690
   -47.1683 -47.1645 -47.1463 -47.1461 -47.1411 -47.1401 -47.1371 -47.1355
   -47.1334 -47.1320 -47.1135 -47.1117 -47.1097 -47.1096 -47.1063 -47.1027
   -47.0941 -47.0921 -47.0764 -47.0756 -47.0750 -47.0705 -47.0621 -47.0595
   -47.0593 -47.0579 -47.0575 -47.0561 -47.0543 -47.0494 -47.0291 -47.0276
   -47.0239 -47.0221 -47.0159 -47.0134 -47.0132 -47.0089 -46.9725 -46.9702
   -46.9684 -46.9658 -46.9508 -46.9477 -46.9444 -46.9430 -46.9317 -46.9315
   -46.9224 -46.9205 -46.9198 -46.9149 -46.9093 -46.9080 -46.9074 -46.8926
   -23.9010 -23.4485 -21.5481 -21.0540 -16.5580 -14.3544 -12.6400 -11.7153
    -9.7475  -8.4459  -8.3618  -8.0075  -7.5607  -7.2611  -6.7922  -6.7830
    -6.7300  -6.3565  -6.0459  -6.0348  -5.9743  -5.9526  -5.9153  -5.8968
    -5.8661  -5.8286  -5.8051  -5.8039  -5.8035  -5.7755  -5.6765  -5.6583
    -5.5251  -5.5224  -5.5222  -5.5216  -5.4688  -5.4489  -5.4481  -5.4474
    -5.3880  -5.3115  -5.3102  -5.3082  -5.3030  -5.2597  -5.2526  -5.2346
    -5.2338  -5.1844  -5.1827  -5.0988  -5.0986  -5.0975  -5.0946  -4.8881
    -4.8868  -4.8857  -4.8796  -4.8053  -4.7971  -4.7934  -4.7380  -4.7332
    -4.2995  -4.2980  -4.1801  -4.0536  -4.0360  -3.8840  -3.8824  -3.8778
    -3.8670  -3.8641  -3.8598  -3.8561  -3.8494  -3.7189  -3.7160  -3.7069
    -3.7060  -3.7043  -3.7028  -3.6974  -3.6904  -3.6488  -3.6450  -3.6317
    -3.5525  -3.5505  -3.4912  -3.4900  -3.4304  -3.4278  -3.4269  -3.4202
    -3.0882  -3.0868  -3.0762  -3.0682  -3.0660  -3.0650  -3.0646  -3.0634
    -3.0622  -3.0615  -3.0563  -3.0493  -2.9534  -2.9515  -2.9285  -2.9215
    -2.8286  -2.8193  -2.7608  -2.6763  -2.6435  -2.6431  -2.5731  -2.5726
    -2.5719  -2.5708  -2.5463  -2.5416  -2.4822  -2.4272  -2.2576  -2.2487
    -2.2479  -2.2408  -2.2226  -2.2178  -2.2035  -2.1375  -2.1337  -2.0156
    -1.9942  -1.8354  -1.8337  -1.8290  -1.8260  -1.7238  -1.7144  -1.7077
    -1.7040  -1.6998  -1.6979  -1.6935  -1.6437  -1.6432  -1.5988  -1.5768
    -1.5653  -1.3818  -1.3772  -1.1563  -1.1553  -1.1541  -1.1524  -1.0998
    -1.0974  -1.0946  -1.0924  -0.9799  -0.9739  -0.9733  -0.9727  -0.9488
    -0.9469  -0.9379  -0.9362  -0.8290  -0.8250  -0.7524  -0.7442  -0.7366
    -0.6976  -0.6924  -0.6887

          k =-0.0465-0.0268 0.0000 ( 88092 PWs)   bands (ev):

   -79.4332 -79.4310 -79.4112 -79.4089 -79.3825 -79.3816 -79.3799 -79.3770
   -79.3767 -79.3742 -79.3689 -79.3671 -79.3640 -79.3634 -79.3528 -79.3527
   -79.3511 -79.3511 -79.3477 -79.3454 -79.3440 -79.3431 -79.3392 -79.3388
   -79.3368 -79.3362 -79.3340 -79.3336 -79.3328 -79.3305 -79.3260 -79.3072
   -47.5486 -47.5482 -47.5462 -47.5454 -47.5159 -47.5143 -47.5026 -47.5023
   -47.5001 -47.4997 -47.4909 -47.4886 -47.4691 -47.4674 -47.4456 -47.4439
   -47.4225 -47.4214 -47.4197 -47.4192 -47.3954 -47.3949 -47.3927 -47.3922
   -47.3393 -47.3367 -47.2812 -47.2799 -47.2778 -47.2753 -47.2707 -47.2688
   -47.2342 -47.2318 -47.2139 -47.2133 -47.2118 -47.2112 -47.1708 -47.1693
   -47.1666 -47.1655 -47.1459 -47.1456 -47.1419 -47.1391 -47.1357 -47.1355
   -47.1342 -47.1335 -47.1133 -47.1122 -47.1100 -47.1093 -47.1058 -47.1025
   -47.0940 -47.0924 -47.0759 -47.0749 -47.0736 -47.0721 -47.0620 -47.0601
   -47.0591 -47.0575 -47.0564 -47.0558 -47.0538 -47.0531 -47.0298 -47.0269
   -47.0238 -47.0222 -47.0157 -47.0127 -47.0116 -47.0100 -46.9718 -46.9711
   -46.9684 -46.9678 -46.9474 -46.9468 -46.9467 -46.9428 -46.9327 -46.9308
   -46.9228 -46.9213 -46.9185 -46.9155 -46.9090 -46.9079 -46.9073 -46.8927
   -23.9010 -23.4485 -21.5481 -21.0540 -16.5580 -14.3544 -12.6400 -11.7153
    -9.7475  -8.4459  -8.3618  -8.0074  -7.5608  -7.2613  -6.7925  -6.7814
    -6.7310  -6.3557  -6.0377  -6.0356  -5.9893  -5.9510  -5.9145  -5.8974
    -5.8650  -5.8273  -5.8047  -5.8044  -5.8037  -5.7705  -5.6797  -5.6719
    -5.5230  -5.5224  -5.5219  -5.5161  -5.4603  -5.4488  -5.4482  -5.4406
    -5.3966  -5.3118  -5.3109  -5.3100  -5.3011  -5.2586  -5.2537  -5.2354
    -5.2304  -5.1842  -5.1830  -5.0989  -5.0987  -5.0974  -5.0955  -4.8909
    -4.8866  -4.8860  -4.8728  -4.8050  -4.7973  -4.7942  -4.7377  -4.7338
    -4.2998  -4.2970  -4.1761  -4.0569  -4.0412  -3.8840  -3.8837  -3.8819
    -3.8701  -3.8598  -3.8557  -3.8532  -3.8501  -3.7172  -3.7163  -3.7065
    -3.7058  -3.7041  -3.7032  -3.7010  -3.6911  -3.6478  -3.6436  -3.6351
    -3.5530  -3.5500  -3.4910  -3.4886  -3.4293  -3.4285  -3.4265  -3.4211
    -3.0880  -3.0870  -3.0782  -3.0674  -3.0662  -3.0658  -3.0644  -3.0640
    -3.0610  -3.0610  -3.0591  -3.0480  -2.9533  -2.9517  -2.9276  -2.9225
    -2.8305  -2.8202  -2.7541  -2.6786  -2.6439  -2.6428  -2.5751  -2.5725
    -2.5718  -2.5707  -2.5446  -2.5409  -2.4812  -2.4283  -2.2573  -2.2479
    -2.2469  -2.2427  -2.2213  -2.2167  -2.2054  -2.1365  -2.1353  -2.0158
    -1.9937  -1.8349  -1.8320  -1.8309  -1.8275  -1.7246  -1.7128  -1.7097
    -1.7058  -1.6991  -1.6947  -1.6923  -1.6443  -1.6431  -1.5918  -1.5772
    -1.5762  -1.3817  -1.3754  -1.1568  -1.1560  -1.1544  -1.1506  -1.0995
    -1.0963  -1.0950  -1.0911  -0.9807  -0.9736  -0.9732  -0.9723  -0.9506
    -0.9463  -0.9380  -0.9367  -0.8292  -0.8252  -0.7525  -0.7430  -0.7278
    -0.7080  -0.6928  -0.6895

     the Fermi energy is    -0.9116 ev

!    total energy              =  -15236.34617859 Ry
     Harris-Foulkes estimate   =  -15236.34617885 Ry
     estimated scf accuracy    <       0.00000053 Ry

     The total energy is the sum of the following terms:

     one-electron contribution =  -76913.70819502 Ry
     hartree contribution      =   38449.39226354 Ry
     xc contribution           =    -997.86629237 Ry
     ewald contribution        =   32109.32918114 Ry
     one-center paw contrib.   =   -7883.34942055 Ry
     smearing contrib. (-TS)   =      -0.14371533 Ry

     convergence has been achieved in  53 iterations

     Forces acting on atoms (Ry/au):


     negative rho (up, down):  7.185E-02 0.000E+00
     atom    1 type  1   force =    -0.00016248    0.00013580    0.01032989
     atom    2 type  1   force =    -0.00056610   -0.00086752   -0.01007473
     atom    3 type  1   force =    -0.00010342   -0.00022077    0.00932353
     atom    4 type  1   force =    -0.00116510   -0.00004429   -0.00939721
     atom    5 type  1   force =     0.00019066   -0.00016377    0.01000548
     atom    6 type  1   force =     0.00018261   -0.00015241   -0.00942590
     atom    7 type  1   force =    -0.00008890    0.00031925    0.00954601
     atom    8 type  1   force =    -0.00006471    0.00004360   -0.00986113
     atom    9 type  1   force =    -0.00025989   -0.00012245    0.00955883
     atom   10 type  1   force =     0.00067535   -0.00053293   -0.00972486
     atom   11 type  1   force =     0.00080355   -0.00011779    0.01056712
     atom   12 type  1   force =     0.00016766   -0.00290898   -0.01301646
     atom   13 type  1   force =     0.00002009    0.00026205    0.00990630
     atom   14 type  1   force =    -0.00860963    0.00565434   -0.02660498
     atom   15 type  1   force =     0.00001460    0.00010898    0.00955302
     atom   16 type  1   force =     0.00023639   -0.00011825   -0.00979635
     atom   17 type  1   force =     0.00017519   -0.00006568    0.01008388
     atom   18 type  1   force =    -0.00041562   -0.00002164   -0.00948440
     atom   19 type  1   force =    -0.00057756    0.00012817    0.00992427
     atom   20 type  1   force =     0.00181918   -0.00116378   -0.01104985
     atom   21 type  1   force =    -0.00018102    0.00010301    0.00639079
     atom   22 type  1   force =     0.00147779    0.00147128   -0.01136482
     atom   23 type  1   force =    -0.00016229    0.00068505    0.00827363
     atom   24 type  1   force =    -0.00051328    0.00098635   -0.01018052
     atom   25 type  1   force =     0.00004476    0.00017467    0.00941437
     atom   26 type  1   force =     0.00036181   -0.00017608   -0.00946215
     atom   27 type  1   force =     0.00020535   -0.00009444    0.00994795
     atom   28 type  1   force =    -0.00029208    0.00035650   -0.00953238
     atom   29 type  1   force =    -0.00048365    0.00050278    0.01018011
     atom   30 type  1   force =     0.00088667   -0.00029211   -0.00976765
     atom   31 type  1   force =     0.00041887   -0.00068105    0.01047867
     atom   32 type  1   force =     0.00051194    0.00088709   -0.01008270
     atom   33 type  2   force =     0.02024830   -0.00050426   -0.00431721
     atom   34 type  2   force =     0.00154794    0.02820583   -0.01782132
     atom   35 type  2   force =     0.02355411   -0.00055763   -0.02588860
     atom   36 type  2   force =    -0.00035168    0.00515317   -0.01359199
     atom   37 type  3   force =    -0.00313799   -0.00887037    0.01595497
     atom   38 type  3   force =     0.00386928   -0.01907766    0.01070079
     atom   39 type  3   force =    -0.02690223    0.00898354    0.03503081
     atom   40 type  3   force =     0.00142975   -0.00136587    0.02833681
     atom   41 type  3   force =     0.00158111   -0.00033194   -0.00913225
     atom   42 type  4   force =    -0.00031040    0.00431146   -0.00484425
     atom   43 type  4   force =     0.00200871   -0.00220091   -0.00522775
     atom   44 type  4   force =    -0.00042106   -0.00539146   -0.00645298
     atom   45 type  4   force =     0.00049320    0.00611722    0.00727579
     atom   46 type  4   force =    -0.01644916   -0.00067131    0.00940042
     atom   47 type  4   force =    -0.00170663   -0.01787477    0.00591900

     Total force =     0.107641     Total SCF correction =     0.002074
 !ASE

     Writing output data file calc.save
     Check: negative starting charge=   -0.062017
     NEW-OLD atomic charge density approx. for the potential

     Check: negative/imaginary core charge=   -0.000001    0.000000
     Check: negative starting charge=   -0.064513

     negative rho (up, down):  7.432E-02 0.000E+00

     total cpu time spent up to now is     4912.3 secs

     per-process dynamical memory:   439.3 Mb

     Self-consistent Calculation

     iteration #  1     ecut=    40.42 Ry     beta=0.20
     Davidson diagonalization with overlap
     c_bands:  3 eigenvalues not converged
     c_bands:  1 eigenvalues not converged
     ethr =  1.79E-10,  avg # of iterations = 20.0

     negative rho (up, down):  7.272E-02 0.000E+00

     total cpu time spent up to now is     5321.7 secs

     total energy              =  -15236.16993765 Ry
     Harris-Foulkes estimate   =  -15236.49612815 Ry
     estimated scf accuracy    <       0.10827670 Ry

     iteration #  2     ecut=    40.42 Ry     beta=0.20
     Davidson diagonalization with overlap
     ethr =  1.82E-05,  avg # of iterations =  2.0

     negative rho (up, down):  6.767E-02 0.000E+00

     total cpu time spent up to now is     5403.8 secs

     total energy              =  -15236.12418982 Ry
     Harris-Foulkes estimate   =  -15236.17040193 Ry
     estimated scf accuracy    <       0.07655737 Ry

     iteration #  3     ecut=    40.42 Ry     beta=0.20
     Davidson diagonalization with overlap
     ethr =  1.29E-05,  avg # of iterations =  5.2

     negative rho (up, down):  6.668E-02 0.000E+00

     total cpu time spent up to now is     5495.8 secs

     total energy              =  -15236.13306667 Ry
     Harris-Foulkes estimate   =  -15236.13408018 Ry
     estimated scf accuracy    <       0.01017982 Ry

     iteration #  4     ecut=    40.42 Ry     beta=0.20
     Davidson diagonalization with overlap
     ethr =  1.71E-06,  avg # of iterations = 12.2

     negative rho (up, down):  6.477E-02 0.000E+00

     total cpu time spent up to now is     5597.8 secs

     total energy              =  -15236.13188849 Ry
     Harris-Foulkes estimate   =  -15236.13338342 Ry
     estimated scf accuracy    <       0.00652851 Ry

     iteration #  5     ecut=    40.42 Ry     beta=0.20
     Davidson diagonalization with overlap
     ethr =  1.10E-06,  avg # of iterations =  3.0

     negative rho (up, down):  6.407E-02 0.000E+00

     total cpu time spent up to now is     5685.8 secs

     total energy              =  -15236.13206996 Ry
     Harris-Foulkes estimate   =  -15236.13232990 Ry
     estimated scf accuracy    <       0.00285677 Ry

     iteration #  6     ecut=    40.42 Ry     beta=0.20
     Davidson diagonalization with overlap
     ethr =  4.81E-07,  avg # of iterations =  4.0

     negative rho (up, down):  6.259E-02 0.000E+00

     total cpu time spent up to now is     5771.0 secs

     total energy              =  -15236.13168213 Ry
     Harris-Foulkes estimate   =  -15236.13210870 Ry
     estimated scf accuracy    <       0.00227656 Ry

     iteration #  7     ecut=    40.42 Ry     beta=0.20
     Davidson diagonalization with overlap
     c_bands:  1 eigenvalues not converged
     ethr =  3.83E-07,  avg # of iterations = 14.8

     negative rho (up, down):  6.245E-02 0.000E+00

     total cpu time spent up to now is     5877.9 secs

     total energy              =  -15236.13173237 Ry
     Harris-Foulkes estimate   =  -15236.13187576 Ry
     estimated scf accuracy    <       0.00172749 Ry

     iteration #  8     ecut=    40.42 Ry     beta=0.20
     Davidson diagonalization with overlap
     ethr =  2.91E-07,  avg # of iterations =  2.8

     negative rho (up, down):  6.189E-02 0.000E+00

     total cpu time spent up to now is     5962.0 secs

     total energy              =  -15236.13162848 Ry
     Harris-Foulkes estimate   =  -15236.13176311 Ry
     estimated scf accuracy    <       0.00137000 Ry

     iteration #  9     ecut=    40.42 Ry     beta=0.20
     Davidson diagonalization with overlap
     ethr =  2.31E-07,  avg # of iterations =  2.2

     negative rho (up, down):  6.212E-02 0.000E+00

     total cpu time spent up to now is     6046.7 secs

     total energy              =  -15236.13159093 Ry
     Harris-Foulkes estimate   =  -15236.13165514 Ry
     estimated scf accuracy    <       0.00111553 Ry

     iteration # 10     ecut=    40.42 Ry     beta=0.20
     Davidson diagonalization with overlap
     ethr =  1.88E-07,  avg # of iterations =  2.0

     negative rho (up, down):  6.375E-02 0.000E+00

     total cpu time spent up to now is     6128.4 secs

     total energy              =  -15236.13142602 Ry
     Harris-Foulkes estimate   =  -15236.13160100 Ry
     estimated scf accuracy    <       0.00101636 Ry

     iteration # 11     ecut=    40.42 Ry     beta=0.20
     Davidson diagonalization with overlap
     ethr =  1.71E-07,  avg # of iterations =  3.8

     negative rho (up, down):  6.481E-02 0.000E+00

     total cpu time spent up to now is     6213.5 secs

     total energy              =  -15236.13137769 Ry
     Harris-Foulkes estimate   =  -15236.13145214 Ry
     estimated scf accuracy    <       0.00079083 Ry

     iteration # 12     ecut=    40.42 Ry     beta=0.20
     Davidson diagonalization with overlap
     ethr =  1.33E-07,  avg # of iterations =  3.2

     negative rho (up, down):  6.708E-02 0.000E+00

     total cpu time spent up to now is     6297.4 secs

     total energy              =  -15236.13127043 Ry
     Harris-Foulkes estimate   =  -15236.13138688 Ry
     estimated scf accuracy    <       0.00063119 Ry

     iteration # 13     ecut=    40.42 Ry     beta=0.20
     Davidson diagonalization with overlap
     c_bands:  1 eigenvalues not converged
     c_bands:  2 eigenvalues not converged
     c_bands:  1 eigenvalues not converged
     ethr =  1.06E-07,  avg # of iterations = 15.8

     negative rho (up, down):  6.917E-02 0.000E+00

     total cpu time spent up to now is     6406.2 secs

     total energy              =  -15236.13116707 Ry
     Harris-Foulkes estimate   =  -15236.13130070 Ry
     estimated scf accuracy    <       0.00041103 Ry

     iteration # 14     ecut=    40.42 Ry     beta=0.20
     Davidson diagonalization with overlap
     ethr =  6.92E-08,  avg # of iterations =  8.2

     negative rho (up, down):  7.219E-02 0.000E+00

     total cpu time spent up to now is     6499.9 secs

     total energy              =  -15236.13110600 Ry
     Harris-Foulkes estimate   =  -15236.13118136 Ry
     estimated scf accuracy    <       0.00023767 Ry

     iteration # 15     ecut=    40.42 Ry     beta=0.20
     Davidson diagonalization with overlap
     ethr =  4.00E-08,  avg # of iterations =  7.2

     negative rho (up, down):  7.196E-02 0.000E+00

     total cpu time spent up to now is     6597.2 secs

     total energy              =  -15236.13110318 Ry
     Harris-Foulkes estimate   =  -15236.13111908 Ry
     estimated scf accuracy    <       0.00013286 Ry

     iteration # 16     ecut=    40.42 Ry     beta=0.20
     Davidson diagonalization with overlap
     c_bands:  1 eigenvalues not converged
     ethr =  2.24E-08,  avg # of iterations =  9.8

     negative rho (up, down):  7.240E-02 0.000E+00

     total cpu time spent up to now is     6690.9 secs

     total energy              =  -15236.13109144 Ry
     Harris-Foulkes estimate   =  -15236.13110632 Ry
     estimated scf accuracy    <       0.00009201 Ry

     iteration # 17     ecut=    40.42 Ry     beta=0.20
     Davidson diagonalization with overlap
     ethr =  1.55E-08,  avg # of iterations =  5.2

     negative rho (up, down):  7.259E-02 0.000E+00

     total cpu time spent up to now is     6777.6 secs

     total energy              =  -15236.13107787 Ry
     Harris-Foulkes estimate   =  -15236.13109369 Ry
     estimated scf accuracy    <       0.00006082 Ry

     iteration # 18     ecut=    40.42 Ry     beta=0.20
     Davidson diagonalization with overlap
     c_bands:  1 eigenvalues not converged
     c_bands:  1 eigenvalues not converged
     c_bands:  1 eigenvalues not converged
     ethr =  1.02E-08,  avg # of iterations = 15.8

     negative rho (up, down):  7.213E-02 0.000E+00

     total cpu time spent up to now is     6884.7 secs

     total energy              =  -15236.13107058 Ry
     Harris-Foulkes estimate   =  -15236.13108067 Ry
     estimated scf accuracy    <       0.00003336 Ry

     iteration # 19     ecut=    40.42 Ry     beta=0.20
     Davidson diagonalization with overlap
     c_bands:  1 eigenvalues not converged
     c_bands:  1 eigenvalues not converged
     ethr =  5.62E-09,  avg # of iterations = 11.2

     negative rho (up, down):  7.238E-02 0.000E+00

     total cpu time spent up to now is     6983.6 secs

     total energy              =  -15236.13106845 Ry
     Harris-Foulkes estimate   =  -15236.13107206 Ry
     estimated scf accuracy    <       0.00002102 Ry

     iteration # 20     ecut=    40.42 Ry     beta=0.20
     Davidson diagonalization with overlap
     c_bands:  1 eigenvalues not converged
     c_bands:  1 eigenvalues not converged
     ethr =  3.54E-09,  avg # of iterations = 11.0

     negative rho (up, down):  7.234E-02 0.000E+00

     total cpu time spent up to now is     7078.1 secs

     total energy              =  -15236.13106579 Ry
     Harris-Foulkes estimate   =  -15236.13106890 Ry
     estimated scf accuracy    <       0.00001497 Ry

     iteration # 21     ecut=    40.42 Ry     beta=0.20
     Davidson diagonalization with overlap
     c_bands:  1 eigenvalues not converged
     c_bands:  1 eigenvalues not converged
     ethr =  2.52E-09,  avg # of iterations = 11.0

     negative rho (up, down):  7.228E-02 0.000E+00

     total cpu time spent up to now is     7172.4 secs

     total energy              =  -15236.13106464 Ry
     Harris-Foulkes estimate   =  -15236.13106612 Ry
     estimated scf accuracy    <       0.00001076 Ry

     iteration # 22     ecut=    40.42 Ry     beta=0.20
     Davidson diagonalization with overlap
     c_bands:  1 eigenvalues not converged
     c_bands:  1 eigenvalues not converged
     ethr =  1.81E-09,  avg # of iterations = 10.5

     negative rho (up, down):  7.249E-02 0.000E+00

     total cpu time spent up to now is     7266.3 secs

     total energy              =  -15236.13106204 Ry
     Harris-Foulkes estimate   =  -15236.13106477 Ry
     estimated scf accuracy    <       0.00000860 Ry

     iteration # 23     ecut=    40.42 Ry     beta=0.20
     Davidson diagonalization with overlap
     c_bands:  1 eigenvalues not converged
     c_bands:  1 eigenvalues not converged
     ethr =  1.45E-09,  avg # of iterations = 14.0

     negative rho (up, down):  7.263E-02 0.000E+00

     total cpu time spent up to now is     7372.7 secs

     total energy              =  -15236.13106192 Ry
     Harris-Foulkes estimate   =  -15236.13106250 Ry
     estimated scf accuracy    <       0.00000496 Ry

     iteration # 24     ecut=    40.42 Ry     beta=0.20
     Davidson diagonalization with overlap
     c_bands:  1 eigenvalues not converged
     c_bands:  1 eigenvalues not converged
     ethr =  8.35E-10,  avg # of iterations = 11.0

     negative rho (up, down):  7.289E-02 0.000E+00

     total cpu time spent up to now is     7467.5 secs

     total energy              =  -15236.13106120 Ry
     Harris-Foulkes estimate   =  -15236.13106199 Ry
     estimated scf accuracy    <       0.00000381 Ry

     iteration # 25     ecut=    40.42 Ry     beta=0.20
     Davidson diagonalization with overlap
     c_bands:  1 eigenvalues not converged
     c_bands:  1 eigenvalues not converged
     ethr =  6.41E-10,  avg # of iterations = 11.2

     negative rho (up, down):  7.305E-02 0.000E+00

     total cpu time spent up to now is     7564.8 secs

     total energy              =  -15236.13106093 Ry
     Harris-Foulkes estimate   =  -15236.13106132 Ry
     estimated scf accuracy    <       0.00000257 Ry

     iteration # 26     ecut=    40.42 Ry     beta=0.20
     Davidson diagonalization with overlap
     c_bands:  1 eigenvalues not converged
     c_bands:  1 eigenvalues not converged
     ethr =  4.33E-10,  avg # of iterations = 11.0

     negative rho (up, down):  7.333E-02 0.000E+00

     total cpu time spent up to now is     7661.8 secs

     total energy              =  -15236.13106058 Ry
     Harris-Foulkes estimate   =  -15236.13106099 Ry
     estimated scf accuracy    <       0.00000199 Ry

     iteration # 27     ecut=    40.42 Ry     beta=0.20
     Davidson diagonalization with overlap
     c_bands:  1 eigenvalues not converged
     c_bands:  1 eigenvalues not converged
     ethr =  3.35E-10,  avg # of iterations = 11.0

     negative rho (up, down):  7.356E-02 0.000E+00

     total cpu time spent up to now is     7758.3 secs

     total energy              =  -15236.13106032 Ry
     Harris-Foulkes estimate   =  -15236.13106063 Ry
     estimated scf accuracy    <       0.00000146 Ry

     iteration # 28     ecut=    40.42 Ry     beta=0.20
     Davidson diagonalization with overlap
     c_bands:  1 eigenvalues not converged
     c_bands:  1 eigenvalues not converged
     ethr =  2.47E-10,  avg # of iterations = 18.2

     negative rho (up, down):  7.389E-02 0.000E+00

     total cpu time spent up to now is     7879.4 secs

     total energy              =  -15236.13105991 Ry
     Harris-Foulkes estimate   =  -15236.13106035 Ry
     estimated scf accuracy    <       0.00000109 Ry

     iteration # 29     ecut=    40.42 Ry     beta=0.20
     Davidson diagonalization with overlap
     c_bands:  1 eigenvalues not converged
     c_bands:  2 eigenvalues not converged
     ethr =  1.83E-10,  avg # of iterations = 15.2

     negative rho (up, down):  7.447E-02 0.000E+00

     total cpu time spent up to now is     7979.1 secs

     End of self-consistent calculation

          k = 0.0000 0.0000 0.0000 ( 88237 PWs)   bands (ev):

   -79.2640 -79.2263 -79.2182 -79.2169 -79.2159 -79.2150 -79.2142 -79.1956
   -79.1759 -79.1747 -79.1706 -79.1688 -79.1668 -79.1660 -79.1657 -79.1653
   -79.1644 -79.1642 -79.1635 -79.1627 -79.1605 -79.1587 -79.1533 -79.1469
   -79.1453 -79.1426 -79.1420 -79.1413 -79.1407 -79.1380 -79.1376 -79.1339
   -47.4147 -47.4146 -47.4130 -47.3548 -47.3539 -47.3523 -47.3087 -47.3042
   -47.3016 -47.3009 -47.2989 -47.2977 -47.2729 -47.2719 -47.2678 -47.2664
   -47.2662 -47.2649 -47.1656 -47.1552 -47.1542 -47.1491 -47.1480 -47.1479
   -47.1465 -47.1244 -47.1232 -47.1197 -47.1187 -47.1176 -47.1155 -47.0948
   -47.0920 -47.0909 -47.0883 -47.0863 -47.0844 -47.0064 -47.0050 -47.0042
   -47.0034 -47.0017 -47.0012 -46.9775 -46.9728 -46.9720 -46.9687 -46.9645
   -46.9634 -46.9631 -46.9617 -46.9607 -46.9056 -46.9028 -46.9013 -46.9005
   -46.8995 -46.8993 -46.8985 -46.8958 -46.8905 -46.8808 -46.8805 -46.8780
   -46.8766 -46.8748 -46.8742 -46.8736 -46.8728 -46.8700 -46.8193 -46.8189
   -46.8155 -46.8136 -46.8125 -46.8123 -46.8118 -46.8089 -46.7712 -46.7683
   -46.7607 -46.7586 -46.7578 -46.7571 -46.7562 -46.7549 -46.7506 -46.7500
   -46.7491 -46.7169 -46.7151 -46.7134 -46.7115 -46.7112 -46.7108 -46.7103
   -26.0506 -24.3845 -21.6673 -21.5036 -16.5254 -13.8771 -11.9739 -10.4372
    -9.2450  -8.9388  -8.6976  -8.3938  -7.9798  -7.8581  -7.3822  -7.1569
    -6.6350  -6.3495  -6.2318  -6.1249  -6.1187  -6.1160  -6.0757  -5.7707
    -5.7656  -5.7651  -5.7602  -5.7587  -5.7463  -5.7342  -5.7311  -5.7175
    -5.5676  -5.4283  -5.4277  -5.4239  -5.2186  -5.2150  -5.2091  -5.2054
    -5.2035  -5.2014  -5.1940  -5.1899  -5.1842  -5.1826  -5.1816  -5.1770
    -4.7933  -4.7592  -4.7543  -4.7478  -4.7408  -4.7382  -4.7288  -4.6416
    -4.6405  -4.6320  -4.6306  -4.6263  -4.6252  -4.4919  -4.4840  -4.4784
    -4.4755  -4.4737  -4.4660  -4.0959  -3.8375  -3.8048  -3.7969  -3.7804
    -3.7016  -3.5554  -3.5511  -3.5499  -3.5431  -3.5416  -3.5358  -3.4940
    -3.4788  -3.4754  -3.4740  -3.4697  -3.4504  -3.4143  -3.3297  -3.3293
    -3.3082  -3.3043  -3.2905  -3.2888  -3.2842  -3.2739  -3.1492  -3.1491
    -3.0602  -3.0527  -3.0496  -3.0479  -3.0465  -3.0446  -3.0281  -3.0112
    -3.0073  -3.0055  -3.0041  -2.9876  -2.9044  -2.8195  -2.7341  -2.7180
    -2.7169  -2.7141  -2.7139  -2.6944  -2.6889  -2.6859  -2.6801  -2.6508
    -2.6467  -2.6435  -2.6413  -2.6330  -2.4992  -2.4542  -2.4460  -2.4405
    -2.4393  -2.4365  -2.4290  -1.8603  -1.8465  -1.8443  -1.8382  -1.8340
    -1.8290  -1.7872  -1.7768  -1.7751  -1.7685  -1.7511  -1.7139  -1.6177
    -1.5955  -1.5930  -1.5088  -1.3562  -1.3533  -1.2734  -1.2664  -1.2653
    -1.2583  -1.2563  -1.2518  -1.2368  -1.2354  -1.2323  -1.2309  -1.2208
    -1.2165  -1.0832  -1.0698  -1.0690  -1.0657  -1.0617  -1.0369  -1.0246
    -1.0147  -1.0129  -0.5539  -0.5503  -0.5494  -0.3341  -0.3321  -0.3081
    -0.3056  -0.3048  -0.3038

          k = 0.0000-0.0537 0.0000 ( 88092 PWs)   bands (ev):

   -79.2529 -79.2490 -79.2295 -79.2251 -79.1991 -79.1960 -79.1929 -79.1901
   -79.1869 -79.1852 -79.1826 -79.1804 -79.1732 -79.1705 -79.1682 -79.1653
   -79.1648 -79.1618 -79.1564 -79.1542 -79.1525 -79.1521 -79.1502 -79.1479
   -79.1469 -79.1448 -79.1430 -79.1421 -79.1409 -79.1387 -79.1381 -79.1346
   -47.3709 -47.3690 -47.3675 -47.3662 -47.3410 -47.3334 -47.3193 -47.3151
   -47.3141 -47.3132 -47.3106 -47.3070 -47.2854 -47.2814 -47.2625 -47.2561
   -47.2468 -47.2440 -47.2397 -47.2380 -47.2168 -47.2127 -47.2108 -47.2062
   -47.1596 -47.1573 -47.1433 -47.1362 -47.1282 -47.1245 -47.0710 -47.0696
   -47.0502 -47.0484 -47.0364 -47.0295 -47.0287 -47.0268 -47.0012 -46.9946
   -46.9924 -46.9893 -46.9585 -46.9562 -46.9550 -46.9545 -46.9435 -46.9429
   -46.9421 -46.9394 -46.9360 -46.9344 -46.9284 -46.9263 -46.9256 -46.9234
   -46.9099 -46.9063 -46.8802 -46.8774 -46.8753 -46.8747 -46.8740 -46.8732
   -46.8724 -46.8713 -46.8693 -46.8675 -46.8559 -46.8551 -46.8425 -46.8401
   -46.8353 -46.8324 -46.8239 -46.8213 -46.8125 -46.8101 -46.7864 -46.7837
   -46.7707 -46.7693 -46.7636 -46.7592 -46.7582 -46.7567 -46.7416 -46.7407
   -46.7296 -46.7278 -46.7241 -46.7222 -46.7104 -46.7092 -46.7077 -46.7063
   -26.0506 -24.3844 -21.6673 -21.5036 -16.5254 -13.8771 -11.9739 -10.4371
    -9.2450  -8.9387  -8.6975  -8.3938  -7.9797  -7.8578  -7.3821  -6.6831
    -6.6327  -6.5848  -6.3439  -6.0826  -5.9244  -5.9192  -5.8099  -5.7938
    -5.7727  -5.7678  -5.7095  -5.7012  -5.6968  -5.6946  -5.5727  -5.5211
    -5.5198  -5.4163  -5.4118  -5.4052  -5.4023  -5.3091  -5.3048  -5.2997
    -5.2939  -5.2245  -5.2179  -5.2122  -5.2089  -5.1842  -5.1674  -5.1642
    -5.1617  -5.0842  -5.0703  -4.9626  -4.9603  -4.9521  -4.9496  -4.8081
    -4.8013  -4.7945  -4.7863  -4.7567  -4.7023  -4.6902  -4.6359  -4.6268
    -4.1710  -4.1686  -4.0930  -3.9341  -3.9199  -3.8312  -3.7479  -3.7119
    -3.6961  -3.6625  -3.6595  -3.6537  -3.6412  -3.6266  -3.6013  -3.5383
    -3.5344  -3.5287  -3.5125  -3.5086  -3.4990  -3.4964  -3.4872  -3.4757
    -3.4500  -3.3367  -3.3236  -3.2992  -3.2934  -3.2834  -3.2720  -3.2675
    -3.2528  -3.0105  -2.9890  -2.9791  -2.9767  -2.9520  -2.9488  -2.9419
    -2.9164  -2.9052  -2.9041  -2.8944  -2.8697  -2.8554  -2.8196  -2.8092
    -2.7737  -2.7550  -2.7083  -2.6244  -2.6063  -2.5911  -2.5804  -2.4249
    -2.4081  -2.4053  -2.3954  -2.3917  -2.3830  -2.2852  -2.2402  -2.0751
    -2.0735  -2.0716  -2.0684  -2.0387  -2.0326  -1.9817  -1.9665  -1.8044
    -1.7710  -1.6490  -1.6430  -1.6416  -1.6375  -1.4862  -1.4798  -1.4753
    -1.4721  -1.4698  -1.4614  -1.4566  -1.4524  -1.4370  -1.3396  -1.2905
    -1.2797  -1.1530  -1.1354  -0.9452  -0.9438  -0.9388  -0.9351  -0.8343
    -0.8329  -0.8313  -0.8297  -0.7410  -0.7391  -0.7306  -0.7247  -0.7199
    -0.7179  -0.6842  -0.6783  -0.5854  -0.5777  -0.5252  -0.4996  -0.4897
    -0.4792  -0.4583  -0.4509

          k = 0.0465-0.0268 0.0000 ( 88092 PWs)   bands (ev):

   -79.2533 -79.2485 -79.2287 -79.2264 -79.1985 -79.1949 -79.1926 -79.1911
   -79.1885 -79.1842 -79.1823 -79.1810 -79.1731 -79.1712 -79.1680 -79.1647
   -79.1637 -79.1623 -79.1579 -79.1554 -79.1513 -79.1501 -79.1486 -79.1483
   -79.1481 -79.1459 -79.1433 -79.1418 -79.1414 -79.1382 -79.1379 -79.1346
   -47.3727 -47.3715 -47.3657 -47.3647 -47.3384 -47.3342 -47.3184 -47.3174
   -47.3132 -47.3121 -47.3096 -47.3082 -47.2859 -47.2811 -47.2607 -47.2593
   -47.2461 -47.2444 -47.2400 -47.2391 -47.2139 -47.2127 -47.2098 -47.2090
   -47.1599 -47.1562 -47.1446 -47.1361 -47.1270 -47.1257 -47.0709 -47.0695
   -47.0512 -47.0478 -47.0327 -47.0305 -47.0297 -47.0277 -46.9999 -46.9979
   -46.9920 -46.9898 -46.9584 -46.9561 -46.9547 -46.9526 -46.9443 -46.9440
   -46.9416 -46.9399 -46.9355 -46.9325 -46.9271 -46.9261 -46.9251 -46.9249
   -46.9092 -46.9074 -46.8790 -46.8777 -46.8764 -46.8759 -46.8740 -46.8721
   -46.8719 -46.8716 -46.8696 -46.8689 -46.8564 -46.8538 -46.8428 -46.8396
   -46.8342 -46.8334 -46.8233 -46.8222 -46.8124 -46.8107 -46.7859 -46.7841
   -46.7708 -46.7688 -46.7628 -46.7615 -46.7583 -46.7546 -46.7431 -46.7402
   -46.7290 -46.7277 -46.7236 -46.7229 -46.7103 -46.7094 -46.7077 -46.7063
   -26.0506 -24.3844 -21.6673 -21.5036 -16.5254 -13.8771 -11.9739 -10.4371
    -9.2450  -8.9387  -8.6975  -8.3938  -7.9797  -7.8577  -7.3822  -6.6860
    -6.6371  -6.5830  -6.3357  -6.0785  -5.9291  -5.9105  -5.8104  -5.8046
    -5.7766  -5.7645  -5.7061  -5.7058  -5.6968  -5.6943  -5.5710  -5.5239
    -5.5079  -5.4135  -5.4120  -5.4077  -5.4067  -5.3118  -5.3051  -5.3022
    -5.2992  -5.2210  -5.2192  -5.2135  -5.2107  -5.1809  -5.1715  -5.1643
    -5.1580  -5.0796  -5.0746  -4.9599  -4.9569  -4.9555  -4.9532  -4.8083
    -4.7978  -4.7936  -4.7866  -4.7575  -4.7000  -4.6954  -4.6268  -4.6251
    -4.1755  -4.1680  -4.1156  -3.9306  -3.9013  -3.8312  -3.7479  -3.7098
    -3.6962  -3.6676  -3.6630  -3.6436  -3.6379  -3.6348  -3.6056  -3.5410
    -3.5323  -3.5309  -3.5122  -3.5085  -3.4969  -3.4917  -3.4849  -3.4838
    -3.4437  -3.3360  -3.3228  -3.2938  -3.2896  -3.2835  -3.2811  -3.2649
    -3.2610  -2.9971  -2.9937  -2.9872  -2.9760  -2.9519  -2.9419  -2.9415
    -2.9151  -2.9094  -2.9065  -2.8846  -2.8736  -2.8598  -2.8169  -2.8110
    -2.7803  -2.7519  -2.7095  -2.6211  -2.6163  -2.5956  -2.5776  -2.4170
    -2.4081  -2.4030  -2.3947  -2.3910  -2.3850  -2.2878  -2.2363  -2.0798
    -2.0725  -2.0712  -2.0604  -2.0454  -2.0302  -1.9756  -1.9714  -1.7973
    -1.7791  -1.6498  -1.6450  -1.6375  -1.6342  -1.4871  -1.4827  -1.4752
    -1.4693  -1.4688  -1.4602  -1.4570  -1.4534  -1.4495  -1.3324  -1.2857
    -1.2822  -1.1487  -1.1431  -0.9442  -0.9432  -0.9390  -0.9362  -0.8367
    -0.8333  -0.8309  -0.8304  -0.7448  -0.7365  -0.7325  -0.7208  -0.7185
    -0.7170  -0.6817  -0.6791  -0.5805  -0.5791  -0.5379  -0.4973  -0.4916
    -0.4665  -0.4531  -0.4523

          k =-0.0465-0.0268 0.0000 ( 88092 PWs)   bands (ev):

   -79.2533 -79.2484 -79.2299 -79.2252 -79.1985 -79.1958 -79.1925 -79.1910
   -79.1876 -79.1847 -79.1820 -79.1804 -79.1742 -79.1707 -79.1688 -79.1650
   -79.1640 -79.1605 -79.1569 -79.1547 -79.1524 -79.1521 -79.1501 -79.1483
   -79.1468 -79.1447 -79.1431 -79.1420 -79.1407 -79.1386 -79.1382 -79.1345
   -47.3711 -47.3688 -47.3671 -47.3654 -47.3427 -47.3328 -47.3205 -47.3153
   -47.3140 -47.3123 -47.3102 -47.3071 -47.2860 -47.2809 -47.2629 -47.2561
   -47.2464 -47.2441 -47.2394 -47.2381 -47.2180 -47.2128 -47.2113 -47.2052
   -47.1591 -47.1576 -47.1430 -47.1357 -47.1287 -47.1243 -47.0713 -47.0693
   -47.0498 -47.0484 -47.0386 -47.0289 -47.0286 -47.0258 -47.0000 -46.9949
   -46.9925 -46.9899 -46.9593 -46.9568 -46.9547 -46.9539 -46.9442 -46.9433
   -46.9414 -46.9387 -46.9359 -46.9350 -46.9285 -46.9264 -46.9259 -46.9228
   -46.9103 -46.9057 -46.8809 -46.8779 -46.8755 -46.8746 -46.8734 -46.8729
   -46.8717 -46.8709 -46.8695 -46.8677 -46.8560 -46.8552 -46.8422 -46.8401
   -46.8358 -46.8325 -46.8244 -46.8208 -46.8126 -46.8102 -46.7856 -46.7837
   -46.7706 -46.7692 -46.7665 -46.7582 -46.7568 -46.7563 -46.7422 -46.7409
   -46.7291 -46.7279 -46.7247 -46.7219 -46.7101 -46.7092 -46.7079 -46.7063
   -26.0506 -24.3844 -21.6673 -21.5036 -16.5254 -13.8771 -11.9739 -10.4371
    -9.2450  -8.9387  -8.6976  -8.3938  -7.9797  -7.8577  -7.3822  -6.6854
    -6.6349  -6.5833  -6.3389  -6.0787  -5.9260  -5.9175  -5.8131  -5.7984
    -5.7752  -5.7654  -5.7127  -5.7015  -5.6957  -5.6932  -5.5720  -5.5205
    -5.5155  -5.4195  -5.4119  -5.4043  -5.4000  -5.3122  -5.3049  -5.2988
    -5.2967  -5.2262  -5.2209  -5.2106  -5.2100  -5.1830  -5.1668  -5.1634
    -5.1610  -5.0845  -5.0701  -4.9657  -4.9616  -4.9519  -4.9483  -4.8087
    -4.7969  -4.7911  -4.7861  -4.7558  -4.7041  -4.6902  -4.6340  -4.6231
    -4.1750  -4.1670  -4.1152  -3.9276  -3.9097  -3.8309  -3.7430  -3.7113
    -3.6970  -3.6628  -3.6595  -3.6516  -3.6408  -3.6337  -3.5985  -3.5369
    -3.5338  -3.5297  -3.5119  -3.5052  -3.5003  -3.4971  -3.4859  -3.4767
    -3.4514  -3.3376  -3.3241  -3.2988  -3.2936  -3.2838  -3.2720  -3.2679
    -3.2542  -3.0142  -2.9874  -2.9790  -2.9758  -2.9527  -2.9484  -2.9416
    -2.9163  -2.9043  -2.9022  -2.8900  -2.8715  -2.8536  -2.8205  -2.8086
    -2.7823  -2.7565  -2.7055  -2.6228  -2.6074  -2.5911  -2.5794  -2.4239
    -2.4087  -2.4071  -2.3954  -2.3900  -2.3834  -2.2863  -2.2381  -2.0760
    -2.0738  -2.0713  -2.0681  -2.0389  -2.0330  -1.9821  -1.9663  -1.8021
    -1.7726  -1.6516  -1.6402  -1.6370  -1.6359  -1.4929  -1.4812  -1.4748
    -1.4718  -1.4693  -1.4612  -1.4582  -1.4522  -1.4413  -1.3349  -1.2906
    -1.2803  -1.1534  -1.1356  -0.9450  -0.9431  -0.9394  -0.9335  -0.8354
    -0.8331  -0.8311  -0.8301  -0.7410  -0.7405  -0.7290  -0.7231  -0.7203
    -0.7186  -0.6830  -0.6786  -0.5804  -0.5785  -0.5263  -0.5014  -0.4895
    -0.4803  -0.4599  -0.4505

     the Fermi energy is    -0.6680 ev

!    total energy              =  -15236.13105915 Ry
     Harris-Foulkes estimate   =  -15236.13105995 Ry
     estimated scf accuracy    <       0.00000069 Ry

     The total energy is the sum of the following terms:

     one-electron contribution =  -77356.85509665 Ry
     hartree contribution      =   38674.46483253 Ry
     xc contribution           =    -998.50108004 Ry
     ewald contribution        =   32328.27164030 Ry
     one-center paw contrib.   =   -7883.36837853 Ry
     smearing contrib. (-TS)   =      -0.14297677 Ry

     convergence has been achieved in  29 iterations

     Forces acting on atoms (Ry/au):


     negative rho (up, down):  7.447E-02 0.000E+00
     atom    1 type  1   force =     0.00007119   -0.00006218   -0.00383493
     atom    2 type  1   force =    -0.00030990    0.00004348    0.00397039
     atom    3 type  1   force =    -0.00083850   -0.00025771   -0.00429434
     atom    4 type  1   force =     0.00018052   -0.00015289    0.00373091
     atom    5 type  1   force =    -0.00035218   -0.00036719   -0.00427202
     atom    6 type  1   force =    -0.00235087   -0.00019003    0.00455400
     atom    7 type  1   force =     0.00023647   -0.00010008   -0.00314652
     atom    8 type  1   force =     0.00003088   -0.00002443    0.00330083
     atom    9 type  1   force =     0.00001505   -0.00016182   -0.00322889
     atom   10 type  1   force =     0.00032791   -0.00058492    0.00319444
     atom   11 type  1   force =    -0.00031591   -0.00073674   -0.00412945
     atom   12 type  1   force =    -0.00042477    0.00176841    0.00533914
     atom   13 type  1   force =    -0.00272985   -0.00157006   -0.00748532
     atom   14 type  1   force =     0.00204936   -0.00178691    0.00418388
     atom   15 type  1   force =    -0.00057016    0.00026420   -0.00449070
     atom   16 type  1   force =    -0.00085804    0.00217291    0.00411510
     atom   17 type  1   force =     0.00008798    0.00053862   -0.00437037
     atom   18 type  1   force =     0.00014150    0.00009232    0.00393938
     atom   19 type  1   force =     0.00010299   -0.00013042   -0.00422952
     atom   20 type  1   force =    -0.00021931    0.00022901    0.00272288
     atom   21 type  1   force =     0.00151805   -0.00065712   -0.00691345
     atom   22 type  1   force =    -0.00143592   -0.00046083    0.00552781
     atom   23 type  1   force =     0.00004446    0.00342599   -0.00840938
     atom   24 type  1   force =     0.00028678    0.00037948    0.00321201
     atom   25 type  1   force =     0.00001282    0.00087922   -0.00407466
     atom   26 type  1   force =    -0.00025913    0.00027437    0.00327768
     atom   27 type  1   force =     0.00105886   -0.00048655   -0.00403641
     atom   28 type  1   force =     0.00005197   -0.00023490    0.00396984
     atom   29 type  1   force =    -0.00014089    0.00023431   -0.00355884
     atom   30 type  1   force =     0.00046383    0.00001049    0.00301579
[...]
    -3.3258  -3.3112  -3.3095  -3.3043  -3.3001  -3.2603  -3.1123  -3.1116
    -3.0903  -3.0849  -2.9733  -2.9729  -2.9215  -2.9184  -2.9031  -2.9030
    -2.8902  -2.8891  -2.8799  -2.8437  -2.8431  -2.8254  -2.7813  -2.7508
    -2.7267  -2.6068  -2.6055  -2.5680  -2.5643  -2.5415  -2.5382  -2.5008
    -2.4996  -2.4860  -2.2623  -2.2359  -2.1850  -2.1841  -2.1507  -2.1087
    -2.0975  -2.0630  -1.9836  -1.9737  -1.9614  -1.9515  -1.9453  -1.7543
    -1.7323  -1.6402  -1.6399  -1.6121  -1.5711  -1.5663  -1.5647  -1.5641
    -1.5428  -1.5418  -1.4483  -1.4482  -1.4329  -1.4162  -1.4153  -1.4134
    -1.3711  -1.3704  -1.3262  -1.3245  -1.3162  -1.2085  -1.2066  -1.0803
    -1.0589  -1.0584  -1.0393  -0.9634  -0.9631  -0.8909  -0.7483  -0.7468
    -0.7214  -0.7208  -0.6393

          k = 0.0465-0.0268 0.0000 ( 88092 PWs)   bands (ev):

   -79.5019 -79.5014 -79.4797 -79.4792 -79.4501 -79.4498 -79.4474 -79.4467
   -79.4465 -79.4459 -79.4370 -79.4364 -79.4348 -79.4340 -79.4219 -79.4214
   -79.4210 -79.4198 -79.4153 -79.4145 -79.4144 -79.4140 -79.4091 -79.4091
   -79.4081 -79.4076 -79.4035 -79.4029 -79.4026 -79.4008 -79.4004 -79.3997
   -47.6107 -47.6104 -47.6101 -47.6100 -47.5786 -47.5782 -47.5653 -47.5650
   -47.5645 -47.5645 -47.5533 -47.5529 -47.5322 -47.5319 -47.5087 -47.5084
   -47.4849 -47.4847 -47.4845 -47.4842 -47.4586 -47.4583 -47.4580 -47.4576
   -47.4019 -47.4015 -47.3547 -47.3544 -47.3481 -47.3477 -47.3341 -47.3338
   -47.2973 -47.2970 -47.2770 -47.2769 -47.2764 -47.2756 -47.2359 -47.2356
   -47.2351 -47.2347 -47.2124 -47.2122 -47.2046 -47.2042 -47.2007 -47.2005
   -47.1998 -47.1992 -47.1804 -47.1801 -47.1799 -47.1798 -47.1796 -47.1787
   -47.1579 -47.1574 -47.1395 -47.1392 -47.1390 -47.1385 -47.1294 -47.1292
   -47.1282 -47.1272 -47.1253 -47.1249 -47.1215 -47.1211 -47.0927 -47.0924
   -47.0888 -47.0882 -47.0873 -47.0869 -47.0761 -47.0757 -47.0440 -47.0433
   -47.0342 -47.0339 -47.0216 -47.0216 -47.0205 -47.0192 -47.0068 -47.0066
   -46.9956 -46.9947 -46.9944 -46.9936 -46.9830 -46.9826 -46.9824 -46.9814
   -23.6989 -23.4342 -21.3597 -21.0964 -16.4682 -14.1463 -12.4180 -11.1737
    -9.5084  -8.2288  -8.1272  -7.8369  -7.5488  -7.1765  -6.8230  -6.8210
    -6.6669  -6.2741  -6.0820  -6.0819  -5.9949  -5.9933  -5.9437  -5.9432
    -5.9176  -5.8528  -5.8526  -5.8526  -5.8523  -5.7240  -5.7230  -5.6283
    -5.5703  -5.5702  -5.5700  -5.5693  -5.4959  -5.4957  -5.4955  -5.4947
    -5.3668  -5.3659  -5.3656  -5.3635  -5.3157  -5.3127  -5.2998  -5.2896
    -5.2882  -5.2320  -5.2317  -5.1467  -5.1465  -5.1463  -5.1457  -4.9384
    -4.9383  -4.9379  -4.9361  -4.8478  -4.8476  -4.8050  -4.7886  -4.7884
    -4.3483  -4.3477  -4.1083  -4.1049  -3.9453  -3.9402  -3.9400  -3.9389
    -3.9214  -3.9203  -3.9081  -3.9071  -3.8174  -3.7709  -3.7686  -3.7617
    -3.7614  -3.7594  -3.7587  -3.7570  -3.7446  -3.7012  -3.6993  -3.6229
    -3.6060  -3.6036  -3.5438  -3.5426  -3.4788  -3.4785  -3.4775  -3.4731
    -3.1389  -3.1388  -3.1257  -3.1252  -3.1249  -3.1247  -3.1160  -3.1149
    -3.1146  -3.1144  -3.1130  -3.1078  -3.0041  -3.0039  -2.9713  -2.9711
    -2.8712  -2.8708  -2.7295  -2.7055  -2.7050  -2.6299  -2.6296  -2.6295
    -2.6293  -2.6104  -2.6069  -2.5652  -2.5370  -2.4515  -2.3026  -2.3021
    -2.3016  -2.2981  -2.2742  -2.2709  -2.2583  -2.1897  -2.1889  -2.0689
    -2.0613  -1.8845  -1.8844  -1.8827  -1.8810  -1.7740  -1.7715  -1.7687
    -1.7644  -1.7539  -1.7521  -1.7493  -1.7195  -1.7057  -1.7053  -1.6377
    -1.6374  -1.4400  -1.4388  -1.2165  -1.2160  -1.2152  -1.2143  -1.1591
    -1.1583  -1.1579  -1.1576  -1.0316  -1.0315  -1.0309  -1.0305  -1.0082
    -1.0076  -0.9977  -0.9973  -0.8904  -0.8889  -0.8049  -0.8041  -0.7889
    -0.7663  -0.7477  -0.7472

          k =-0.0465-0.0268 0.0000 ( 88092 PWs)   bands (ev):

   -79.5020 -79.5014 -79.4797 -79.4793 -79.4501 -79.4497 -79.4474 -79.4467
   -79.4466 -79.4458 -79.4369 -79.4362 -79.4347 -79.4343 -79.4214 -79.4213
   -79.4208 -79.4207 -79.4154 -79.4146 -79.4145 -79.4137 -79.4094 -79.4089
   -79.4080 -79.4075 -79.4031 -79.4029 -79.4023 -79.4022 -79.4001 -79.3994
   -47.6107 -47.6106 -47.6100 -47.6099 -47.5786 -47.5782 -47.5651 -47.5650
   -47.5646 -47.5644 -47.5533 -47.5530 -47.5323 -47.5319 -47.5088 -47.5085
   -47.4849 -47.4847 -47.4844 -47.4843 -47.4584 -47.4582 -47.4580 -47.4578
   -47.4019 -47.4015 -47.3548 -47.3542 -47.3481 -47.3477 -47.3340 -47.3338
   -47.2973 -47.2969 -47.2768 -47.2766 -47.2763 -47.2763 -47.2360 -47.2357
   -47.2351 -47.2347 -47.2124 -47.2121 -47.2047 -47.2041 -47.2003 -47.2002
   -47.2000 -47.1999 -47.1805 -47.1803 -47.1799 -47.1796 -47.1794 -47.1784
   -47.1578 -47.1576 -47.1393 -47.1392 -47.1389 -47.1387 -47.1288 -47.1288
   -47.1283 -47.1283 -47.1254 -47.1251 -47.1216 -47.1209 -47.0928 -47.0923
   -47.0886 -47.0882 -47.0873 -47.0870 -47.0761 -47.0758 -47.0440 -47.0435
   -47.0343 -47.0338 -47.0210 -47.0209 -47.0205 -47.0203 -47.0071 -47.0064
   -46.9958 -46.9948 -46.9944 -46.9934 -46.9829 -46.9826 -46.9824 -46.9815
   -23.6989 -23.4342 -21.3597 -21.0964 -16.4682 -14.1463 -12.4180 -11.1737
    -9.5084  -8.2287  -8.1273  -7.8370  -7.5488  -7.1766  -6.8222  -6.8216
    -6.6671  -6.2739  -6.0820  -6.0819  -5.9946  -5.9935  -5.9439  -5.9431
    -5.9178  -5.8532  -5.8526  -5.8524  -5.8523  -5.7238  -5.7233  -5.6288
    -5.5703  -5.5702  -5.5699  -5.5684  -5.4959  -5.4955  -5.4953  -5.4949
    -5.3664  -5.3656  -5.3655  -5.3644  -5.3166  -5.3140  -5.2970  -5.2900
    -5.2886  -5.2319  -5.2317  -5.1466  -5.1464  -5.1463  -5.1462  -4.9387
    -4.9384  -4.9382  -4.9354  -4.8477  -4.8476  -4.8053  -4.7886  -4.7880
    -4.3482  -4.3477  -4.1069  -4.1058  -3.9459  -3.9399  -3.9396  -3.9393
    -3.9218  -3.9194  -3.9089  -3.9067  -3.8220  -3.7701  -3.7689  -3.7617
    -3.7613  -3.7588  -3.7586  -3.7579  -3.7436  -3.7013  -3.6963  -3.6228
    -3.6062  -3.6036  -3.5435  -3.5428  -3.4788  -3.4782  -3.4779  -3.4727
    -3.1389  -3.1387  -3.1254  -3.1254  -3.1250  -3.1249  -3.1179  -3.1147
    -3.1140  -3.1136  -3.1132  -3.1078  -3.0042  -3.0039  -2.9718  -2.9706
    -2.8715  -2.8707  -2.7292  -2.7054  -2.7052  -2.6300  -2.6298  -2.6294
    -2.6290  -2.6137  -2.6062  -2.5611  -2.5358  -2.4546  -2.3024  -2.3015
    -2.3012  -2.2997  -2.2729  -2.2701  -2.2599  -2.1897  -2.1888  -2.0695
    -2.0589  -1.8840  -1.8836  -1.8832  -1.8823  -1.7741  -1.7709  -1.7694
    -1.7661  -1.7539  -1.7503  -1.7464  -1.7230  -1.7056  -1.7054  -1.6376
    -1.6373  -1.4404  -1.4384  -1.2163  -1.2158  -1.2154  -1.2147  -1.1589
    -1.1584  -1.1583  -1.1575  -1.0324  -1.0309  -1.0309  -1.0305  -1.0084
    -1.0073  -0.9976  -0.9974  -0.8909  -0.8883  -0.8051  -0.8039  -0.7838
    -0.7716  -0.7483  -0.7473

          k =-0.0232 0.0403 0.0000 ( 88123 PWs)   bands (ev):

   -79.5048 -79.4932 -79.4925 -79.4639 -79.4629 -79.4520 -79.4481 -79.4441
   -79.4438 -79.4428 -79.4419 -79.4321 -79.4316 -79.4293 -79.4285 -79.4247
   -79.4238 -79.4169 -79.4154 -79.4139 -79.4136 -79.4126 -79.4119 -79.4072
   -79.4069 -79.4060 -79.4055 -79.4045 -79.4016 -79.4008 -79.4003 -79.3997
   -47.6285 -47.6069 -47.6068 -47.5925 -47.5923 -47.5789 -47.5629 -47.5625
   -47.5585 -47.5583 -47.5449 -47.5447 -47.5330 -47.5327 -47.5216 -47.5212
   -47.5152 -47.4918 -47.4916 -47.4847 -47.4593 -47.4475 -47.4437 -47.3977
   -47.3973 -47.3840 -47.3834 -47.3727 -47.3573 -47.3459 -47.3453 -47.3365
   -47.3363 -47.2845 -47.2651 -47.2651 -47.2563 -47.2559 -47.2465 -47.2340
   -47.2336 -47.2292 -47.2291 -47.2162 -47.2162 -47.2102 -47.2100 -47.2057
   -47.1886 -47.1882 -47.1848 -47.1845 -47.1680 -47.1676 -47.1669 -47.1597
   -47.1584 -47.1582 -47.1503 -47.1502 -47.1458 -47.1452 -47.1377 -47.1375
   -47.1368 -47.1227 -47.1226 -47.1195 -47.1099 -47.1092 -47.1083 -47.1081
   -47.1009 -47.1007 -47.0947 -47.0772 -47.0665 -47.0496 -47.0486 -47.0483
   -47.0328 -47.0324 -47.0321 -47.0282 -47.0141 -47.0134 -47.0083 -47.0076
   -46.9999 -46.9992 -46.9905 -46.9865 -46.9855 -46.9831 -46.9808 -46.9800
   -23.6989 -23.4342 -21.3597 -21.0964 -16.4682 -14.1463 -12.4180 -11.1737
    -9.5084  -8.2288  -8.1272  -7.8369  -7.5488  -7.1766  -6.9439  -6.6677
    -6.4767  -6.4760  -6.2740  -6.0617  -6.0617  -6.0483  -5.9180  -5.9031
    -5.8977  -5.8975  -5.7183  -5.7179  -5.7097  -5.7088  -5.6545  -5.6447
    -5.6295  -5.6071  -5.5991  -5.5486  -5.5414  -5.5399  -5.5206  -5.5190
    -5.4225  -5.3962  -5.3941  -5.3685  -5.3486  -5.3473  -5.2988  -5.1982
    -5.1975  -5.1877  -5.1875  -5.1832  -5.1515  -5.1506  -5.1435  -5.1434
    -5.0110  -5.0105  -4.8844  -4.8050  -4.7476  -4.6596  -4.6278  -4.6274
    -4.6264  -4.0900  -4.0893  -4.0681  -4.0669  -3.9726  -3.9692  -3.9640
    -3.9567  -3.9119  -3.9080  -3.8704  -3.8639  -3.8620  -3.8427  -3.8313
    -3.8211  -3.8162  -3.7871  -3.7198  -3.7151  -3.6890  -3.6700  -3.6450
    -3.6296  -3.6293  -3.6233  -3.6161  -3.5325  -3.4901  -3.4553  -3.4552
    -3.3300  -3.3276  -3.2454  -3.2205  -3.1687  -3.1676  -3.0753  -3.0478
    -3.0474  -2.9226  -2.9217  -2.8474  -2.8473  -2.8175  -2.8172  -2.7991
    -2.7984  -2.7758  -2.7676  -2.7669  -2.7289  -2.6583  -2.6576  -2.6456
    -2.6403  -2.6396  -2.6380  -2.5587  -2.5573  -2.4993  -2.4026  -2.3757
    -2.3736  -2.2607  -2.2202  -2.2182  -2.1859  -2.1836  -2.1189  -2.1136
    -2.1032  -2.0619  -2.0546  -1.8767  -1.8683  -1.8185  -1.7801  -1.7321
    -1.6993  -1.6643  -1.6617  -1.6210  -1.6198  -1.5892  -1.5890  -1.5731
    -1.5703  -1.5233  -1.5214  -1.4164  -1.4160  -1.4068  -1.3272  -1.1669
    -1.1529  -1.1526  -1.0824  -1.0823  -1.0670  -1.0209  -1.0174  -1.0170
    -1.0043  -1.0030  -0.9737  -0.9731  -0.8811  -0.8802  -0.8327  -0.8276
    -0.8268  -0.8071  -0.8022

          k = 0.0465-0.0000 0.0000 ( 88123 PWs)   bands (ev):

   -79.5048 -79.4930 -79.4927 -79.4635 -79.4633 -79.4520 -79.4481 -79.4441
   -79.4438 -79.4428 -79.4419 -79.4319 -79.4318 -79.4291 -79.4288 -79.4244
   -79.4241 -79.4171 -79.4153 -79.4137 -79.4135 -79.4126 -79.4121 -79.4072
   -79.4069 -79.4057 -79.4055 -79.4049 -79.4017 -79.4009 -79.4002 -79.3997
   -47.6285 -47.6069 -47.6068 -47.5925 -47.5923 -47.5788 -47.5628 -47.5626
   -47.5585 -47.5584 -47.5449 -47.5447 -47.5330 -47.5327 -47.5214 -47.5212
   -47.5153 -47.4919 -47.4916 -47.4847 -47.4593 -47.4476 -47.4437 -47.3975
   -47.3974 -47.3837 -47.3836 -47.3726 -47.3573 -47.3458 -47.3455 -47.3365
   -47.3363 -47.2846 -47.2652 -47.2650 -47.2563 -47.2560 -47.2466 -47.2339
   -47.2337 -47.2292 -47.2290 -47.2162 -47.2162 -47.2102 -47.2100 -47.2058
   -47.1886 -47.1884 -47.1847 -47.1844 -47.1678 -47.1676 -47.1669 -47.1596
   -47.1584 -47.1582 -47.1503 -47.1501 -47.1457 -47.1454 -47.1377 -47.1375
   -47.1368 -47.1227 -47.1225 -47.1195 -47.1097 -47.1095 -47.1083 -47.1081
   -47.1009 -47.1007 -47.0947 -47.0772 -47.0665 -47.0497 -47.0486 -47.0484
   -47.0327 -47.0325 -47.0321 -47.0282 -47.0139 -47.0136 -47.0081 -47.0078
   -46.9998 -46.9993 -46.9906 -46.9860 -46.9857 -46.9831 -46.9807 -46.9801
   -23.6989 -23.4342 -21.3597 -21.0964 -16.4682 -14.1463 -12.4180 -11.1737
    -9.5084  -8.2288  -8.1273  -7.8369  -7.5488  -7.1767  -6.9439  -6.6678
    -6.4766  -6.4760  -6.2739  -6.0618  -6.0616  -6.0483  -5.9181  -5.9031
    -5.8976  -5.8975  -5.7186  -5.7179  -5.7095  -5.7088  -5.6550  -5.6446
    -5.6306  -5.6070  -5.5975  -5.5484  -5.5415  -5.5396  -5.5206  -5.5193
    -5.4229  -5.3960  -5.3939  -5.3686  -5.3476  -5.3472  -5.2999  -5.1985
    -5.1975  -5.1878  -5.1874  -5.1831  -5.1516  -5.1501  -5.1435  -5.1432
    -5.0109  -5.0108  -4.8842  -4.8051  -4.7477  -4.6595  -4.6278  -4.6272
    -4.6264  -4.0900  -4.0895  -4.0685  -4.0672  -3.9706  -3.9690  -3.9657
    -3.9558  -3.9115  -3.9083  -3.8743  -3.8646  -3.8623  -3.8362  -3.8313
    -3.8205  -3.8162  -3.7919  -3.7203  -3.7121  -3.6903  -3.6694  -3.6449
    -3.6296  -3.6294  -3.6229  -3.6167  -3.5328  -3.4900  -3.4552  -3.4547
    -3.3303  -3.3264  -3.2456  -3.2205  -3.1688  -3.1680  -3.0754  -3.0478
    -3.0476  -2.9227  -2.9217  -2.8475  -2.8470  -2.8176  -2.8174  -2.7984
    -2.7982  -2.7758  -2.7678  -2.7669  -2.7288  -2.6583  -2.6578  -2.6460
    -2.6403  -2.6396  -2.6382  -2.5591  -2.5574  -2.4996  -2.4032  -2.3759
    -2.3712  -2.2608  -2.2199  -2.2188  -2.1858  -2.1837  -2.1185  -2.1139
    -2.1040  -2.0622  -2.0540  -1.8760  -1.8691  -1.8183  -1.7803  -1.7321
    -1.6994  -1.6640  -1.6618  -1.6207  -1.6202  -1.5892  -1.5891  -1.5733
    -1.5699  -1.5230  -1.5216  -1.4162  -1.4160  -1.4069  -1.3271  -1.1668
    -1.1530  -1.1524  -1.0823  -1.0822  -1.0671  -1.0209  -1.0175  -1.0170
    -1.0042  -1.0033  -0.9736  -0.9732  -0.8808  -0.8804  -0.8327  -0.8275
    -0.8269  -0.8068  -0.8026

     the Fermi energy is    -0.9994 ev

!    total energy              =  -15236.37907665 Ry
     Harris-Foulkes estimate   =  -15236.37907687 Ry
     estimated scf accuracy    <       0.00000032 Ry

     The total energy is the sum of the following terms:

     one-electron contribution =  -75955.71438782 Ry
     hartree contribution      =   37969.35066123 Ry
     xc contribution           =    -997.64225645 Ry
     ewald contribution        =   31631.12907629 Ry
     one-center paw contrib.   =   -7883.35845011 Ry
     smearing contrib. (-TS)   =      -0.14371978 Ry

     convergence has been achieved in  50 iterations

     Forces acting on atoms (Ry/au):


     negative rho (up, down):  7.038E-02 0.000E+00
     atom    1 type  1   force =     0.00001321   -0.00002926    0.01362776
     atom    2 type  1   force =    -0.00011185   -0.00015450   -0.01349947
     atom    3 type  1   force =    -0.00002134   -0.00000981    0.01341535
     atom    4 type  1   force =    -0.00008810   -0.00000413   -0.01339847
     atom    5 type  1   force =     0.00001016   -0.00007698    0.01346189
     atom    6 type  1   force =    -0.00011625    0.00002472   -0.01322996
     atom    7 type  1   force =    -0.00012659    0.00002955    0.01350297
     atom    8 type  1   force =     0.00005643   -0.00000869   -0.01339095
     atom    9 type  1   force =    -0.00011567    0.00002506    0.01351792
     atom   10 type  1   force =     0.00022849   -0.00015640   -0.01344235
     atom   11 type  1   force =     0.00005566   -0.00006070    0.01360275
     atom   12 type  1   force =    -0.00009363   -0.00013207   -0.01383869
     atom   13 type  1   force =    -0.00000304    0.00004980    0.01370134
     atom   14 type  1   force =    -0.00043282    0.00008336   -0.01558157
     atom   15 type  1   force =     0.00001053   -0.00003588    0.01346976
     atom   16 type  1   force =    -0.00005833    0.00013860   -0.01327424
     atom   17 type  1   force =     0.00008135   -0.00000206    0.01351079
     atom   18 type  1   force =    -0.00017520    0.00004409   -0.01330792
     atom   19 type  1   force =    -0.00015671    0.00009038    0.01370665
     atom   20 type  1   force =     0.00032772   -0.00029849   -0.01381051
     atom   21 type  1   force =     0.00016572   -0.00003768    0.01270040
     atom   22 type  1   force =    -0.00022183    0.00003715   -0.01301786
     atom   23 type  1   force =    -0.00001932   -0.00001926    0.01352183
     atom   24 type  1   force =    -0.00010780    0.00023476   -0.01366600
     atom   25 type  1   force =    -0.00000580    0.00002183    0.01350189
     atom   26 type  1   force =     0.00010148   -0.00003306   -0.01346079
     atom   27 type  1   force =     0.00013590   -0.00003051    0.01354565
     atom   28 type  1   force =    -0.00016639    0.00010598   -0.01326953
     atom   29 type  1   force =    -0.00023664    0.00019492    0.01387262
     atom   30 type  1   force =     0.00038655   -0.00010500   -0.01354752
     atom   31 type  1   force =     0.00009859   -0.00014993    0.01353894
     atom   32 type  1   force =     0.00016324    0.00029491   -0.01357067
     atom   33 type  2   force =    -0.00205773    0.00436029   -0.00128538
     atom   34 type  2   force =     0.00026596    0.00196686   -0.00138850
     atom   35 type  2   force =    -0.00018522    0.00220489   -0.00099154
     atom   36 type  2   force =     0.00205360    0.00066025    0.00283862
     atom   37 type  3   force =    -0.00640191    0.00315883   -0.00068794
     atom   38 type  3   force =     0.00130062   -0.00251264   -0.00276638
     atom   39 type  3   force =    -0.00317759   -0.00506000    0.00192717
     atom   40 type  3   force =    -0.00061500   -0.00180438    0.00181236
     atom   41 type  3   force =     0.00025693   -0.00492900   -0.00079351
     atom   42 type  4   force =     0.00107762    0.00002829   -0.00022765
     atom   43 type  4   force =    -0.00054919   -0.00002195    0.00104169
     atom   44 type  4   force =     0.00153775    0.00273856    0.00056932
     atom   45 type  4   force =     0.00146238    0.00055455    0.00179383
     atom   46 type  4   force =     0.00529604   -0.00194852   -0.00188779
     atom   47 type  4   force =     0.00015803    0.00057331    0.00115370

     Total force =     0.078251     Total SCF correction =     0.002097
 !ASE

     Writing output data file calc.save
     Check: negative starting charge=   -0.060670
     NEW-OLD atomic charge density approx. for the potential

     Check: negative/imaginary core charge=   -0.000001    0.000000
     Check: negative starting charge=   -0.060660

     negative rho (up, down):  7.037E-02 0.000E+00

     total cpu time spent up to now is    75948.1 secs

     per-process dynamical memory:   632.7 Mb

     Self-consistent Calculation

     iteration #  1     ecut=    40.42 Ry     beta=0.15
     Davidson diagonalization with overlap
     c_bands:  1 eigenvalues not converged
     c_bands:  1 eigenvalues not converged
     c_bands:  2 eigenvalues not converged
     c_bands:  1 eigenvalues not converged
     c_bands:  1 eigenvalues not converged
     c_bands:  3 eigenvalues not converged
     c_bands:  3 eigenvalues not converged
     ethr =  6.80E-11,  avg # of iterations = 21.0

     negative rho (up, down):  7.041E-02 0.000E+00

     total cpu time spent up to now is    79810.5 secs

     total energy              =  -15236.37740957 Ry
     Harris-Foulkes estimate   =  -15236.37753579 Ry
     estimated scf accuracy    <       0.00168200 Ry

     iteration #  2     ecut=    40.42 Ry     beta=0.15
     Davidson diagonalization with overlap
     ethr =  2.83E-07,  avg # of iterations =  1.8

     negative rho (up, down):  7.064E-02 0.000E+00

     total cpu time spent up to now is    81057.6 secs

     total energy              =  -15236.37688155 Ry
     Harris-Foulkes estimate   =  -15236.37741438 Ry
     estimated scf accuracy    <       0.00129139 Ry

     iteration #  3     ecut=    40.42 Ry     beta=0.15
     Davidson diagonalization with overlap
     ethr =  2.17E-07,  avg # of iterations =  4.0

     negative rho (up, down):  7.057E-02 0.000E+00

     total cpu time spent up to now is    82698.7 secs

     total energy              =  -15236.37706606 Ry
     Harris-Foulkes estimate   =  -15236.37708291 Ry
     estimated scf accuracy    <       0.00018173 Ry

     iteration #  4     ecut=    40.42 Ry     beta=0.15
     Davidson diagonalization with overlap
     ethr =  3.06E-08,  avg # of iterations =  3.6

     negative rho (up, down):  7.051E-02 0.000E+00

     total cpu time spent up to now is    84035.3 secs

     total energy              =  -15236.37703117 Ry
     Harris-Foulkes estimate   =  -15236.37707324 Ry
     estimated scf accuracy    <       0.00012523 Ry

     iteration #  5     ecut=    40.42 Ry     beta=0.15
     Davidson diagonalization with overlap
     ethr =  2.11E-08,  avg # of iterations =  3.0

     negative rho (up, down):  7.040E-02 0.000E+00

     total cpu time spent up to now is    85371.1 secs

     total energy              =  -15236.37703331 Ry
     Harris-Foulkes estimate   =  -15236.37703955 Ry
     estimated scf accuracy    <       0.00005043 Ry

     iteration #  6     ecut=    40.42 Ry     beta=0.15
     Davidson diagonalization with overlap
     ethr =  8.49E-09,  avg # of iterations =  3.7
