  python dir          : /gpfs/pace1/project/chbe-medford/medford-share/gits/frozen/ben_espresso_8_24_2017/espresso
  espresso dir        : /nv/hp22/amedford6/medford-shared/builds/espresso/5.1.r11289-pybeef/intel-16.0+mvapich2-2.2+mkl-11.3/espresso-5.1.r11289-pybeef/bin
  pseudo dir          : /gpfs/pace1/project/chbe-medford/medford-share/data/pseudos/SSSP_eff_PBE
  ase-espresso py git : GITVERSION



     Program PWSCF v.5.1rc2 starts on  6Apr2019 at 22:24:33 

     This program is part of the open-source Quantum ESPRESSO suite
     for quantum simulation of materials; please cite
         "P. Giannozzi et al., J. Phys.:Condens. Matter 21 395502 (2009);
          URL http://www.quantum-espresso.org", 
     in publications or presentations arising from this work. More details at
     http://www.quantum-espresso.org/quote

     Parallel version (MPI), running on    12 processors
     R & G space division:  proc/nbgrp/npool/nimage =      12
     Reading input from pw.inp
     Message from routine read_cards :
     DEPRECATED: no units specified in CELL_PARAMETERS card

     Current dimensions of program PWSCF are:
     Max number of different atomic species (ntypx) = 10
     Max number of k-points (npk) =  40000
     Max angular momentum in pseudopotentials (lmaxx) =  3

     IMPORTANT: XC functional enforced from input :
     Exchange-correlation      = PBE ( 1  4  3  4 0)
     Any further DFT definition will be discarded
     Please, verify this is what you really want


     Subspace diagonalization in iterative solution of the eigenvalue problem:
     a serial algorithm will be used

 
     Parallelization info
     --------------------
     sticks:   dense  smooth     PW     G-vecs:    dense   smooth      PW
     Min         835     410    107               180058    61552    8337
     Max         837     411    108               180063    61575    8352
     Sum       10033    4927   1285              2160719   738771  100077
 


     bravais-lattice index     =            0
     lattice parameter (alat)  =       1.8897  a.u.
     unit-cell volume          =   21271.9317 (a.u.)^3
     number of atoms/cell      =           56
     number of atomic types    =            4
     number of electrons       =       594.00
     number of Kohn-Sham states=          307
     kinetic-energy cutoff     =      40.4243  Ry
     charge density cutoff     =     330.7439  Ry
     convergence threshold     =      3.7E-07
     mixing beta               =       0.0750
     number of iterations used =            8  local-TF  mixing
     Exchange-correlation      = PBE ( 1  4  3  4 0)
     nstep                     =           50


     celldm(1)=   1.889726  celldm(2)=   0.000000  celldm(3)=   0.000000
     celldm(4)=   0.000000  celldm(5)=   0.000000  celldm(6)=   0.000000

     crystal axes: (cart. coord. in units of alat)
               a(1) = (  11.099314   0.000000   0.000000 )  
               a(2) = (  -5.549657   9.612288   0.000000 )  
               a(3) = (   0.000000   0.000000  29.545235 )  

     reciprocal axes: (cart. coord. in units 2 pi/alat)
               b(1) = (  0.090096  0.052017  0.000000 )  
               b(2) = (  0.000000  0.104034  0.000000 )  
               b(3) = (  0.000000  0.000000  0.033846 )  


     PseudoPot. # 1 for Pt read from file:
     /gpfs/pace1/project/chbe-medford/medford-share/data/pseudos/SSSP_eff_PBE/Pt.UPF
     MD5 check sum: f09d6de1a584b5a045c4fc126da2d0c4
     Pseudo is Ultrasoft + core correction, Zval = 16.0
     Generated by new atomic code, or converted to UPF format
     Using radial grid of  985 points,  6 beta functions with: 
                l(1) =   0
                l(2) =   0
                l(3) =   1
                l(4) =   1
                l(5) =   2
                l(6) =   2
     Q(r) pseudized with  8 coefficients,  rinner =    1.300   1.300   1.300
                                                       1.300   1.300

     PseudoPot. # 2 for O  read from file:
     /gpfs/pace1/project/chbe-medford/medford-share/data/pseudos/SSSP_eff_PBE/O.UPF
     MD5 check sum: 734c27235a0248c51dbae37a1fbe46ec
     Pseudo is Ultrasoft + core correction, Zval =  6.0
     Generated by new atomic code, or converted to UPF format
     Using radial grid of  737 points,  5 beta functions with: 
                l(1) =   0
                l(2) =   0
                l(3) =   1
                l(4) =   1
                l(5) =   2
     Q(r) pseudized with  8 coefficients,  rinner =    0.900   0.900   0.900
                                                       0.900   0.900

     PseudoPot. # 3 for C  read from file:
     /gpfs/pace1/project/chbe-medford/medford-share/data/pseudos/SSSP_eff_PBE/C.UPF
     MD5 check sum: d1aef80898a10debaa0f26306b886e00
     Pseudo is Ultrasoft + core correction, Zval =  4.0
     Generated by new atomic code, or converted to UPF format
     Using radial grid of  721 points,  4 beta functions with: 
                l(1) =   0
                l(2) =   0
                l(3) =   1
                l(4) =   1
     Q(r) pseudized with  8 coefficients,  rinner =    1.100   1.100   1.100


     PseudoPot. # 4 for  H read from file:
     /gpfs/pace1/project/chbe-medford/medford-share/data/pseudos/SSSP_eff_PBE/H.UPF
     MD5 check sum: 36633979392af7100e6f6632747262d3
     Pseudo is Ultrasoft, Zval =  1.0
     Generated using "atomic" code by A. Dal Corso  v.5.0.99 svn rev. 10869
     Using radial grid of  929 points,  2 beta functions with: 
                l(1) =   0
                l(2) =   0
     Q(r) pseudized with 0 coefficients 


     atomic species   valence    mass     pseudopotential
        Pt1           16.00   195.08000     Pt( 1.00)
        O1             6.00    15.99940     O ( 1.00)
        C1             4.00    12.01100     C ( 1.00)
        H1             1.00     1.00794      H( 1.00)

     No symmetry found



   Cartesian axes

     site n.     atom                  positions (alat units)
         1           Pt1 tau(   1) = (   0.0000000   0.0000000  10.0000000  )
         2           Pt1 tau(   2) = (   1.3874142   0.8010240  12.2656379  )
         3           Pt1 tau(   3) = (  -1.3874142   2.4030719  10.0000000  )
         4           Pt1 tau(   4) = (   0.0000000   3.2040959  12.2656379  )
         5           Pt1 tau(   5) = (  -2.7748284   4.8061438  10.0000000  )
         6           Pt1 tau(   6) = (  -1.3874142   5.6071678  12.2656379  )
         7           Pt1 tau(   7) = (  -4.1622426   7.2092157  10.0000000  )
         8           Pt1 tau(   8) = (  -2.7748284   8.0102397  12.2656379  )
         9           Pt1 tau(   9) = (   2.7748284   0.0000000  10.0000000  )
        10           Pt1 tau(  10) = (   4.1622426   0.8010240  12.2656379  )
        11           Pt1 tau(  11) = (   1.3874142   2.4030719  10.0000000  )
        12           Pt1 tau(  12) = (   2.7748284   3.2040959  12.2656379  )
        13           Pt1 tau(  13) = (   0.0000000   4.8061438  10.0000000  )
        14           Pt1 tau(  14) = (   1.3874142   5.6071678  12.2656379  )
        15           Pt1 tau(  15) = (  -1.3874142   7.2092157  10.0000000  )
        16           Pt1 tau(  16) = (   0.0000000   8.0102397  12.2656379  )
        17           Pt1 tau(  17) = (   5.5496569   0.0000000  10.0000000  )
        18           Pt1 tau(  18) = (   6.9370711   0.8010240  12.2656379  )
        19           Pt1 tau(  19) = (   4.1622426   2.4030719  10.0000000  )
        20           Pt1 tau(  20) = (   5.5496569   3.2040959  12.2656379  )
        21           Pt1 tau(  21) = (   2.7748284   4.8061438  10.0000000  )
        22           Pt1 tau(  22) = (   4.1622426   5.6071678  12.2656379  )
        23           Pt1 tau(  23) = (   1.3874142   7.2092157  10.0000000  )
        24           Pt1 tau(  24) = (   2.7748284   8.0102397  12.2656379  )
        25           Pt1 tau(  25) = (   8.3244853   0.0000000  10.0000000  )
        26           Pt1 tau(  26) = (   9.7118995   0.8010240  12.2656379  )
        27           Pt1 tau(  27) = (   6.9370711   2.4030719  10.0000000  )
        28           Pt1 tau(  28) = (   8.3244853   3.2040959  12.2656379  )
        29           Pt1 tau(  29) = (   5.5496569   4.8061438  10.0000000  )
        30           Pt1 tau(  30) = (   6.9370711   5.6071678  12.2656379  )
        31           Pt1 tau(  31) = (   4.1622426   7.2092157  10.0000000  )
        32           Pt1 tau(  32) = (   5.5496569   8.0102397  12.2656379  )
        33           O1  tau(  33) = (   4.5171000   2.7292590  19.1502048  )
        34           O1  tau(  34) = (   4.6732000   5.2287810  18.1356544  )
        35           O1  tau(  35) = (   2.4011000   1.0989676  18.9246532  )
        36           O1  tau(  36) = (   1.9088000   5.6469746  17.5438610  )
        37           O1  tau(  37) = (   3.0263000   1.6019736  15.5296527  )
        38           O1  tau(  38) = (   4.1620000   5.6070000  14.7656379  )
        39           O1  tau(  39) = (   4.2333000   0.4039686  17.0257824  )
        40           O1  tau(  40) = (   3.1577000   7.3299924  15.8560737  )
        41           C1  tau(  41) = (   3.3758000   3.2174892  18.4264082  )
        42           C1  tau(  42) = (   3.8868000   4.2660275  17.4194059  )
        43           C1  tau(  43) = (   2.6113000   2.0188977  17.8502965  )
        44           C1  tau(  44) = (   2.8194000   5.0456065  16.6373249  )
        45           C1  tau(  45) = (   3.3841000   1.2545050  16.7902231  )
        46           C1  tau(  46) = (   3.3844000   6.1335640  15.7448466  )
        47           H1  tau(  47) = (   2.7497000   3.7005570  19.1866405  )
        48           H1  tau(  48) = (   4.5861000   3.7915597  16.7218854  )
        49           H1  tau(  49) = (   1.6339000   2.3186897  17.4587941  )
        50           H1  tau(  50) = (   2.2400000   4.3612121  16.0075932  )
        51           H1  tau(  51) = (   4.9626000   3.4981628  19.5452346  )
        52           H1  tau(  52) = (   4.0832000   5.6819983  18.7622713  )
        53           H1  tau(  53) = (   1.8073000   0.4011725  18.5979961  )
        54           H1  tau(  54) = (   1.1713000   6.0092827  17.0237454  )
        55           H1  tau(  55) = (   3.5290000   1.0986879  14.8541133  )
        56           H1  tau(  56) = (   4.5223000   6.2998596  14.1719767  )

     number of k points=    10  Fermi-Dirac smearing, width (Ry)=  0.0073
                       cart. coord. in units 2pi/alat
        k(    1) = (   0.0000000   0.0000000   0.0000000), wk =   0.1250000
        k(    2) = (   0.0000000   0.0260084   0.0000000), wk =   0.2500000
        k(    3) = (   0.0000000  -0.0520168   0.0000000), wk =   0.1250000
        k(    4) = (   0.0225239   0.0390126   0.0000000), wk =   0.2500000
        k(    5) = (  -0.0225239   0.0130042   0.0000000), wk =   0.2500000
        k(    6) = (   0.0225239   0.0130042   0.0000000), wk =   0.2500000
        k(    7) = (   0.0450478  -0.0260084   0.0000000), wk =   0.1250000
        k(    8) = (  -0.0450478  -0.0260084   0.0000000), wk =   0.1250000
        k(    9) = (  -0.0225239   0.0390126   0.0000000), wk =   0.2500000
        k(   10) = (   0.0450478  -0.0000000   0.0000000), wk =   0.2500000

     Dense  grid:  2160719 G-vectors     FFT dimensions: ( 125, 125, 324)

     Smooth grid:   738771 G-vectors     FFT dimensions: (  90,  90, 225)

     Largest allocated arrays     est. size (Mb)     dimensions
        Kohn-Sham Wavefunctions        36.37 Mb     (    7764,  307)
        NL pseudopotentials            88.61 Mb     (    7764,  748)
        Each V/rho on FFT grid          6.44 Mb     (  421875)
        Each G-vector array             1.37 Mb     (  180061)
        G-vector shells                 0.43 Mb     (   56214)
     Largest temporary arrays     est. size (Mb)     dimensions
        Auxiliary wavefunctions       145.48 Mb     (    7764, 1228)
        Each subspace H/S matrix       23.01 Mb     (    1228, 1228)
        Each <psi_i|beta_j> matrix      3.50 Mb     (     748,  307)
        Arrays for rho mixing          51.50 Mb     (  421875,    8)

     Initial potential from superposition of free atoms
     Check: negative starting charge=   -5.910217

     starting charge  577.99929, renormalised to  594.00000

     negative rho (up, down):  6.074E+00 0.000E+00
     Starting wfc are  450 randomized atomic wfcs

     total cpu time spent up to now is      127.9 secs

     per-process dynamical memory:   644.7 Mb

     Self-consistent Calculation

     iteration #  1     ecut=    40.42 Ry     beta=0.07
     Davidson diagonalization with overlap
     ethr =  1.00E-02,  avg # of iterations =  2.0

     negative rho (up, down):  6.065E+00 0.000E+00

     total cpu time spent up to now is      388.5 secs

     total energy              =   -7095.18802973 Ry
     Harris-Foulkes estimate   =   -7098.47021373 Ry
     estimated scf accuracy    <     395.71431058 Ry

     iteration #  2     ecut=    40.42 Ry     beta=0.07
     Davidson diagonalization with overlap
     ethr =  1.00E-02,  avg # of iterations =  1.0

     negative rho (up, down):  6.126E+00 0.000E+00

     total cpu time spent up to now is      587.7 secs

     total energy              =   -7069.74355596 Ry
     Harris-Foulkes estimate   =   -7095.36157244 Ry
     estimated scf accuracy    <     330.91414527 Ry

     iteration #  3     ecut=    40.42 Ry     beta=0.07
     Davidson diagonalization with overlap
     ethr =  1.00E-02,  avg # of iterations =  5.7

     negative rho (up, down):  6.130E+00 0.000E+00

     total cpu time spent up to now is      862.8 secs

     total energy              =   -7083.65061409 Ry
     Harris-Foulkes estimate   =   -7084.35185742 Ry
     estimated scf accuracy    <      15.54176510 Ry

     iteration #  4     ecut=    40.42 Ry     beta=0.07
     Davidson diagonalization with overlap
     ethr =  2.62E-03,  avg # of iterations =  1.8

     negative rho (up, down):  6.208E+00 0.000E+00

     total cpu time spent up to now is     1066.4 secs

     total energy              =   -7077.33152059 Ry
     Harris-Foulkes estimate   =   -7083.83019054 Ry
     estimated scf accuracy    <      13.75909700 Ry

     iteration #  5     ecut=    40.42 Ry     beta=0.07
     Davidson diagonalization with overlap
     ethr =  2.32E-03,  avg # of iterations =  7.0

     negative rho (up, down):  6.221E+00 0.000E+00

     total cpu time spent up to now is     1333.8 secs

     total energy              =   -7080.35615630 Ry
     Harris-Foulkes estimate   =   -7084.08710374 Ry
     estimated scf accuracy    <     170.78985807 Ry

     iteration #  6     ecut=    40.42 Ry     beta=0.07
     Davidson diagonalization with overlap
     ethr =  2.32E-03,  avg # of iterations =  4.0

     negative rho (up, down):  6.221E+00 0.000E+00

     total cpu time spent up to now is     1542.5 secs

     total energy              =   -7081.23661019 Ry
     Harris-Foulkes estimate   =   -7081.24466458 Ry
     estimated scf accuracy    <      62.66668766 Ry

     iteration #  7     ecut=    40.42 Ry     beta=0.07
     Davidson diagonalization with overlap
     ethr =  2.32E-03,  avg # of iterations =  1.0

     negative rho (up, down):  6.218E+00 0.000E+00

     total cpu time spent up to now is     1742.8 secs

     total energy              =   -7081.02187448 Ry
     Harris-Foulkes estimate   =   -7081.26800244 Ry
     estimated scf accuracy    <      62.02925488 Ry

     iteration #  8     ecut=    40.42 Ry     beta=0.07
     Davidson diagonalization with overlap
     ethr =  2.32E-03,  avg # of iterations =  1.0

     negative rho (up, down):  6.218E+00 0.000E+00

     total cpu time spent up to now is     1939.7 secs

     total energy              =   -7081.22829360 Ry
     Harris-Foulkes estimate   =   -7081.04161331 Ry
     estimated scf accuracy    <      58.14059110 Ry

     iteration #  9     ecut=    40.42 Ry     beta=0.07
     Davidson diagonalization with overlap
     ethr =  2.32E-03,  avg # of iterations =  1.0

     negative rho (up, down):  6.218E+00 0.000E+00

     total cpu time spent up to now is     2135.9 secs

     total energy              =   -7080.63683828 Ry
     Harris-Foulkes estimate   =   -7081.23983682 Ry
     estimated scf accuracy    <      61.04307700 Ry

     iteration # 10     ecut=    40.42 Ry     beta=0.07
     Davidson diagonalization with overlap
     ethr =  2.32E-03,  avg # of iterations =  3.2

     negative rho (up, down):  6.181E+00 0.000E+00

     total cpu time spent up to now is     2340.0 secs

     total energy              =   -7079.67204352 Ry
     Harris-Foulkes estimate   =   -7080.84591665 Ry
     estimated scf accuracy    <      48.75070717 Ry

     iteration # 11     ecut=    40.42 Ry     beta=0.07
     Davidson diagonalization with overlap
     ethr =  2.32E-03,  avg # of iterations =  6.7

     negative rho (up, down):  6.172E+00 0.000E+00

     total cpu time spent up to now is     2571.1 secs

     total energy              =   -7080.39957686 Ry
     Harris-Foulkes estimate   =   -7080.40732678 Ry
     estimated scf accuracy    <      16.34580312 Ry

     iteration # 12     ecut=    40.42 Ry     beta=0.07
     Davidson diagonalization with overlap
     ethr =  2.32E-03,  avg # of iterations =  1.8

     negative rho (up, down):  6.161E+00 0.000E+00

     total cpu time spent up to now is     2773.0 secs

     total energy              =   -7080.27809008 Ry
     Harris-Foulkes estimate   =   -7080.51751022 Ry
     estimated scf accuracy    <      13.91464352 Ry

     iteration # 13     ecut=    40.42 Ry     beta=0.07
     Davidson diagonalization with overlap
     ethr =  2.32E-03,  avg # of iterations =  3.8

     negative rho (up, down):  6.172E+00 0.000E+00

     total cpu time spent up to now is     2991.1 secs

     total energy              =   -7080.64137193 Ry
     Harris-Foulkes estimate   =   -7080.86795498 Ry
     estimated scf accuracy    <       5.03442924 Ry

     iteration # 14     ecut=    40.42 Ry     beta=0.07
     Davidson diagonalization with overlap
     ethr =  8.48E-04,  avg # of iterations =  1.7

     negative rho (up, down):  6.180E+00 0.000E+00

     total cpu time spent up to now is     3195.6 secs

     total energy              =   -7080.63818518 Ry
     Harris-Foulkes estimate   =   -7080.85698248 Ry
     estimated scf accuracy    <       3.49837441 Ry

     iteration # 15     ecut=    40.42 Ry     beta=0.07
     Davidson diagonalization with overlap
     ethr =  5.89E-04,  avg # of iterations =  1.0

     negative rho (up, down):  6.218E+00 0.000E+00

     total cpu time spent up to now is     3391.2 secs

     total energy              =   -7079.98314388 Ry
     Harris-Foulkes estimate   =   -7080.65478167 Ry
     estimated scf accuracy    <       2.86126414 Ry

     iteration # 16     ecut=    40.42 Ry     beta=0.07
     Davidson diagonalization with overlap
     ethr =  4.82E-04,  avg # of iterations =  6.4

     negative rho (up, down):  6.222E+00 0.000E+00

     total cpu time spent up to now is     3628.0 secs

     total energy              =   -7080.54271025 Ry
     Harris-Foulkes estimate   =   -7080.55168919 Ry
     estimated scf accuracy    <      24.34130783 Ry

     iteration # 17     ecut=    40.42 Ry     beta=0.07
     Davidson diagonalization with overlap
     ethr =  4.82E-04,  avg # of iterations =  1.0

     negative rho (up, down):  6.224E+00 0.000E+00

     total cpu time spent up to now is     3826.1 secs

     total energy              =   -7080.43705861 Ry
     Harris-Foulkes estimate   =   -7080.54789300 Ry
     estimated scf accuracy    <      25.86092235 Ry

     iteration # 18     ecut=    40.42 Ry     beta=0.07
     Davidson diagonalization with overlap
     ethr =  4.82E-04,  avg # of iterations =  1.0

     negative rho (up, down):  6.217E+00 0.000E+00

     total cpu time spent up to now is     4019.8 secs

     total energy              =   -7080.40516665 Ry
     Harris-Foulkes estimate   =   -7080.44734347 Ry
     estimated scf accuracy    <      19.30199573 Ry

     iteration # 19     ecut=    40.42 Ry     beta=0.07
     Davidson diagonalization with overlap
     ethr =  4.82E-04,  avg # of iterations =  1.0

     negative rho (up, down):  6.230E+00 0.000E+00

     total cpu time spent up to now is     4213.5 secs

     total energy              =   -7080.43441293 Ry
     Harris-Foulkes estimate   =   -7080.42281031 Ry
     estimated scf accuracy    <      13.95624933 Ry

     iteration # 20     ecut=    40.42 Ry     beta=0.07
     Davidson diagonalization with overlap
     ethr =  4.82E-04,  avg # of iterations =  2.0

     negative rho (up, down):  6.247E+00 0.000E+00

     total cpu time spent up to now is     4408.1 secs

     total energy              =   -7080.52101238 Ry
     Harris-Foulkes estimate   =   -7080.49707534 Ry
     estimated scf accuracy    <      22.18139230 Ry

     iteration # 21     ecut=    40.42 Ry     beta=0.07
     Davidson diagonalization with overlap
     ethr =  4.82E-04,  avg # of iterations =  1.0

     negative rho (up, down):  6.221E+00 0.000E+00

     total cpu time spent up to now is     4599.7 secs

     total energy              =   -7080.79829773 Ry
     Harris-Foulkes estimate   =   -7080.53335417 Ry
     estimated scf accuracy    <      24.70881324 Ry

     iteration # 22     ecut=    40.42 Ry     beta=0.07
     Davidson diagonalization with overlap
     ethr =  4.82E-04,  avg # of iterations =  1.0

     negative rho (up, down):  6.222E+00 0.000E+00

     total cpu time spent up to now is     4791.6 secs

     total energy              =   -7080.90098471 Ry
     Harris-Foulkes estimate   =   -7080.86898780 Ry
     estimated scf accuracy    <      36.81426573 Ry

     iteration # 23     ecut=    40.42 Ry     beta=0.07
     Davidson diagonalization with overlap
     ethr =  4.82E-04,  avg # of iterations =  1.0

     negative rho (up, down):  6.105E+00 0.000E+00

     total cpu time spent up to now is     4984.5 secs

     total energy              =   -7078.98037646 Ry
     Harris-Foulkes estimate   =   -7080.90627159 Ry
     estimated scf accuracy    <      36.94135463 Ry

     iteration # 24     ecut=    40.42 Ry     beta=0.07
     Davidson diagonalization with overlap
     ethr =  4.82E-04,  avg # of iterations =  3.7

     negative rho (up, down):  6.080E+00 0.000E+00

     total cpu time spent up to now is     5200.4 secs

     total energy              =   -7080.31008666 Ry
     Harris-Foulkes estimate   =   -7080.32659094 Ry
     estimated scf accuracy    <       2.62666253 Ry

     iteration # 25     ecut=    40.42 Ry     beta=0.07
     Davidson diagonalization with overlap
     ethr =  4.42E-04,  avg # of iterations =  1.9

     negative rho (up, down):  6.074E+00 0.000E+00

     total cpu time spent up to now is     5398.5 secs

     total energy              =   -7080.34498856 Ry
     Harris-Foulkes estimate   =   -7080.35003075 Ry
     estimated scf accuracy    <       2.35604422 Ry

     iteration # 26     ecut=    40.42 Ry     beta=0.07
     Davidson diagonalization with overlap
     ethr =  3.97E-04,  avg # of iterations =  1.0

     negative rho (up, down):  6.048E+00 0.000E+00

     total cpu time spent up to now is     5595.1 secs

     total energy              =   -7080.31977629 Ry
     Harris-Foulkes estimate   =   -7080.35277153 Ry
     estimated scf accuracy    <       2.34466620 Ry

     iteration # 27     ecut=    40.42 Ry     beta=0.07
     Davidson diagonalization with overlap
     ethr =  3.95E-04,  avg # of iterations =  1.0

     negative rho (up, down):  5.961E+00 0.000E+00

     total cpu time spent up to now is     5786.7 secs

     total energy              =   -7080.18447065 Ry
     Harris-Foulkes estimate   =   -7080.32598454 Ry
     estimated scf accuracy    <       2.24477977 Ry

     iteration # 28     ecut=    40.42 Ry     beta=0.07
     Davidson diagonalization with overlap
     ethr =  3.78E-04,  avg # of iterations =  3.3

     negative rho (up, down):  6.007E+00 0.000E+00

     total cpu time spent up to now is     6014.4 secs

     total energy              =   -7080.33167694 Ry
     Harris-Foulkes estimate   =   -7080.61883476 Ry
     estimated scf accuracy    <       2.36385924 Ry

     iteration # 29     ecut=    40.42 Ry     beta=0.07
     Davidson diagonalization with overlap
     ethr =  3.78E-04,  avg # of iterations =  2.0

     negative rho (up, down):  6.098E+00 0.000E+00

     total cpu time spent up to now is     6215.0 secs

     total energy              =   -7079.90487522 Ry
     Harris-Foulkes estimate   =   -7080.35874033 Ry
     estimated scf accuracy    <       1.59756826 Ry

     iteration # 30     ecut=    40.42 Ry     beta=0.07
     Davidson diagonalization with overlap
     ethr =  2.69E-04,  avg # of iterations =  3.1

     negative rho (up, down):  6.081E+00 0.000E+00

     total cpu time spent up to now is     6430.0 secs

     total energy              =   -7079.93571416 Ry
     Harris-Foulkes estimate   =   -7080.01116918 Ry
     estimated scf accuracy    <       0.46553517 Ry

     iteration # 31     ecut=    40.42 Ry     beta=0.07
     Davidson diagonalization with overlap
     ethr =  7.84E-05,  avg # of iterations =  2.6

     negative rho (up, down):  6.079E+00 0.000E+00

     total cpu time spent up to now is     6637.8 secs

     total energy              =   -7079.94246755 Ry
     Harris-Foulkes estimate   =   -7079.95102228 Ry
     estimated scf accuracy    <       0.33209038 Ry

     iteration # 32     ecut=    40.42 Ry     beta=0.07
     Davidson diagonalization with overlap
     ethr =  5.59E-05,  avg # of iterations =  1.0

     negative rho (up, down):  6.050E+00 0.000E+00

     total cpu time spent up to now is     6831.5 secs

     total energy              =   -7079.90687767 Ry
     Harris-Foulkes estimate   =   -7079.94371782 Ry
     estimated scf accuracy    <       0.31576586 Ry

     iteration # 33     ecut=    40.42 Ry     beta=0.07
     Davidson diagonalization with overlap
     ethr =  5.32E-05,  avg # of iterations =  2.0

     negative rho (up, down):  6.053E+00 0.000E+00

     total cpu time spent up to now is     7042.3 secs

     total energy              =   -7079.87316262 Ry
     Harris-Foulkes estimate   =   -7079.91631559 Ry
     estimated scf accuracy    <       0.24545269 Ry

     iteration # 34     ecut=    40.42 Ry     beta=0.07
     Davidson diagonalization with overlap
     ethr =  4.13E-05,  avg # of iterations =  4.7

     negative rho (up, down):  6.031E+00 0.000E+00

     total cpu time spent up to now is     7264.8 secs

     total energy              =   -7079.84831381 Ry
     Harris-Foulkes estimate   =   -7079.88696048 Ry
     estimated scf accuracy    <       0.20270042 Ry

     iteration # 35     ecut=    40.42 Ry     beta=0.07
     Davidson diagonalization with overlap
     ethr =  3.41E-05,  avg # of iterations =  2.0

     negative rho (up, down):  6.015E+00 0.000E+00

     total cpu time spent up to now is     7510.0 secs

     total energy              =   -7079.84650448 Ry
     Harris-Foulkes estimate   =   -7079.86079773 Ry
     estimated scf accuracy    <       0.40141067 Ry

     iteration # 36     ecut=    40.42 Ry     beta=0.07
     Davidson diagonalization with overlap
     ethr =  3.41E-05,  avg # of iterations =  1.0

     negative rho (up, down):  5.949E+00 0.000E+00

     total cpu time spent up to now is     7718.5 secs

     total energy              =   -7079.82184481 Ry
     Harris-Foulkes estimate   =   -7079.85059870 Ry
     estimated scf accuracy    <       0.13026509 Ry

     iteration # 37     ecut=    40.42 Ry     beta=0.07
     Davidson diagonalization with overlap
     ethr =  2.19E-05,  avg # of iterations =  2.8

     negative rho (up, down):  5.932E+00 0.000E+00

     total cpu time spent up to now is     7934.0 secs

     total energy              =   -7079.82409929 Ry
     Harris-Foulkes estimate   =   -7079.83201421 Ry
     estimated scf accuracy    <       0.07698023 Ry

     iteration # 38     ecut=    40.42 Ry     beta=0.07
     Davidson diagonalization with overlap
     ethr =  1.30E-05,  avg # of iterations =  3.0

     negative rho (up, down):  5.898E+00 0.000E+00

     total cpu time spent up to now is     8144.6 secs

     total energy              =   -7079.81352775 Ry
     Harris-Foulkes estimate   =   -7079.82494642 Ry
     estimated scf accuracy    <       0.06456832 Ry

     iteration # 39     ecut=    40.42 Ry     beta=0.07
     Davidson diagonalization with overlap
     ethr =  1.09E-05,  avg # of iterations =  6.9

     negative rho (up, down):  5.859E+00 0.000E+00

     total cpu time spent up to now is     8372.6 secs

     total energy              =   -7079.80594764 Ry
     Harris-Foulkes estimate   =   -7079.81704794 Ry
     estimated scf accuracy    <       0.05860725 Ry

     iteration # 40     ecut=    40.42 Ry     beta=0.07
     Davidson diagonalization with overlap
     ethr =  9.87E-06,  avg # of iterations =  3.0

     negative rho (up, down):  5.816E+00 0.000E+00

     total cpu time spent up to now is     8581.1 secs

     total energy              =   -7079.80014436 Ry
     Harris-Foulkes estimate   =   -7079.80915919 Ry
     estimated scf accuracy    <       0.03520370 Ry

     iteration # 41     ecut=    40.42 Ry     beta=0.07
     Davidson diagonalization with overlap
     ethr =  5.93E-06,  avg # of iterations =  3.4

     negative rho (up, down):  5.809E+00 0.000E+00

     total cpu time spent up to now is     8791.7 secs

     total energy              =   -7079.80050935 Ry
     Harris-Foulkes estimate   =   -7079.80154546 Ry
     estimated scf accuracy    <       0.02453162 Ry

     iteration # 42     ecut=    40.42 Ry     beta=0.07
     Davidson diagonalization with overlap
     ethr =  4.13E-06,  avg # of iterations =  1.9

     negative rho (up, down):  5.765E+00 0.000E+00

     total cpu time spent up to now is     8999.0 secs

     total energy              =   -7079.79342655 Ry
     Harris-Foulkes estimate   =   -7079.80080269 Ry
     estimated scf accuracy    <       0.02566896 Ry

     iteration # 43     ecut=    40.42 Ry     beta=0.07
     Davidson diagonalization with overlap
     ethr =  4.13E-06,  avg # of iterations =  3.6

     negative rho (up, down):  5.750E+00 0.000E+00

     total cpu time spent up to now is     9213.3 secs

     total energy              =   -7079.79201359 Ry
     Harris-Foulkes estimate   =   -7079.79490329 Ry
     estimated scf accuracy    <       0.01623554 Ry

     iteration # 44     ecut=    40.42 Ry     beta=0.07
     Davidson diagonalization with overlap
     ethr =  2.73E-06,  avg # of iterations =  3.2

     negative rho (up, down):  5.746E+00 0.000E+00

     total cpu time spent up to now is     9424.5 secs

     total energy              =   -7079.79208244 Ry
     Harris-Foulkes estimate   =   -7079.79267077 Ry
     estimated scf accuracy    <       0.01156698 Ry

     iteration # 45     ecut=    40.42 Ry     beta=0.07
     Davidson diagonalization with overlap
     ethr =  1.95E-06,  avg # of iterations =  1.0

     negative rho (up, down):  5.710E+00 0.000E+00

     total cpu time spent up to now is     9622.7 secs

     total energy              =   -7079.79000052 Ry
     Harris-Foulkes estimate   =   -7079.79220636 Ry
     estimated scf accuracy    <       0.00880774 Ry

     iteration # 46     ecut=    40.42 Ry     beta=0.07
     Davidson diagonalization with overlap
     ethr =  1.48E-06,  avg # of iterations =  7.1

     negative rho (up, down):  5.712E+00 0.000E+00

     total cpu time spent up to now is     9862.5 secs

     total energy              =   -7079.79031520 Ry
     Harris-Foulkes estimate   =   -7079.79100043 Ry
     estimated scf accuracy    <       0.01273220 Ry

     iteration # 47     ecut=    40.42 Ry     beta=0.07
     Davidson diagonalization with overlap
     ethr =  1.48E-06,  avg # of iterations =  1.8

     negative rho (up, down):  5.713E+00 0.000E+00

     total cpu time spent up to now is    10062.5 secs

     total energy              =   -7079.79032733 Ry
     Harris-Foulkes estimate   =   -7079.79053261 Ry
     estimated scf accuracy    <       0.00659597 Ry

     iteration # 48     ecut=    40.42 Ry     beta=0.07
     Davidson diagonalization with overlap
     ethr =  1.11E-06,  avg # of iterations =  4.7

     negative rho (up, down):  5.684E+00 0.000E+00

     total cpu time spent up to now is    10283.9 secs

     total energy              =   -7079.78935799 Ry
     Harris-Foulkes estimate   =   -7079.79046255 Ry
     estimated scf accuracy    <       0.00520036 Ry

     iteration # 49     ecut=    40.42 Ry     beta=0.07
     Davidson diagonalization with overlap
     ethr =  8.75E-07,  avg # of iterations =  3.6

     negative rho (up, down):  5.678E+00 0.000E+00

     total cpu time spent up to now is    10505.2 secs

     total energy              =   -7079.78932576 Ry
     Harris-Foulkes estimate   =   -7079.78974493 Ry
     estimated scf accuracy    <       0.00405154 Ry

     iteration # 50     ecut=    40.42 Ry     beta=0.07
     Davidson diagonalization with overlap
     ethr =  6.82E-07,  avg # of iterations =  6.1

     negative rho (up, down):  5.678E+00 0.000E+00

     total cpu time spent up to now is    10733.6 secs

     total energy              =   -7079.78954156 Ry
     Harris-Foulkes estimate   =   -7079.78955845 Ry
     estimated scf accuracy    <       0.00258101 Ry

     iteration # 51     ecut=    40.42 Ry     beta=0.07
     Davidson diagonalization with overlap
     ethr =  4.35E-07,  avg # of iterations =  1.5

     negative rho (up, down):  5.676E+00 0.000E+00

     total cpu time spent up to now is    10935.8 secs

     total energy              =   -7079.78952682 Ry
     Harris-Foulkes estimate   =   -7079.78955425 Ry
     estimated scf accuracy    <       0.00271612 Ry

     iteration # 52     ecut=    40.42 Ry     beta=0.07
     Davidson diagonalization with overlap
     ethr =  4.35E-07,  avg # of iterations =  1.0

     negative rho (up, down):  5.677E+00 0.000E+00

     total cpu time spent up to now is    11133.5 secs

     total energy              =   -7079.78954814 Ry
     Harris-Foulkes estimate   =   -7079.78953185 Ry
     estimated scf accuracy    <       0.00262165 Ry

     iteration # 53     ecut=    40.42 Ry     beta=0.07
     Davidson diagonalization with overlap
     ethr =  4.35E-07,  avg # of iterations =  1.0

     negative rho (up, down):  5.674E+00 0.000E+00

     total cpu time spent up to now is    11334.3 secs

     total energy              =   -7079.78954724 Ry
     Harris-Foulkes estimate   =   -7079.78955544 Ry
     estimated scf accuracy    <       0.00225019 Ry

     iteration # 54     ecut=    40.42 Ry     beta=0.07
     Davidson diagonalization with overlap
     ethr =  3.79E-07,  avg # of iterations =  4.5

     negative rho (up, down):  5.658E+00 0.000E+00

     total cpu time spent up to now is    11548.3 secs

     total energy              =   -7079.78910718 Ry
     Harris-Foulkes estimate   =   -7079.78960953 Ry
     estimated scf accuracy    <       0.00209531 Ry

     iteration # 55     ecut=    40.42 Ry     beta=0.07
     Davidson diagonalization with overlap
     ethr =  3.53E-07,  avg # of iterations =  3.0

     negative rho (up, down):  5.654E+00 0.000E+00

     total cpu time spent up to now is    11760.5 secs

     total energy              =   -7079.78915284 Ry
     Harris-Foulkes estimate   =   -7079.78919600 Ry
     estimated scf accuracy    <       0.00144920 Ry

     iteration # 56     ecut=    40.42 Ry     beta=0.07
     Davidson diagonalization with overlap
     ethr =  2.44E-07,  avg # of iterations =  1.0

     negative rho (up, down):  5.651E+00 0.000E+00

     total cpu time spent up to now is    11958.5 secs

     total energy              =   -7079.78917008 Ry
     Harris-Foulkes estimate   =   -7079.78916368 Ry
     estimated scf accuracy    <       0.00127026 Ry

     iteration # 57     ecut=    40.42 Ry     beta=0.07
     Davidson diagonalization with overlap
     ethr =  2.14E-07,  avg # of iterations =  2.8

     negative rho (up, down):  5.651E+00 0.000E+00

     total cpu time spent up to now is    12167.1 secs

     total energy              =   -7079.78913555 Ry
     Harris-Foulkes estimate   =   -7079.78919799 Ry
     estimated scf accuracy    <       0.00122720 Ry

     iteration # 58     ecut=    40.42 Ry     beta=0.07
     Davidson diagonalization with overlap
     ethr =  2.07E-07,  avg # of iterations =  2.8

     negative rho (up, down):  5.651E+00 0.000E+00

     total cpu time spent up to now is    12376.8 secs

     total energy              =   -7079.78912686 Ry
     Harris-Foulkes estimate   =   -7079.78916342 Ry
     estimated scf accuracy    <       0.00093671 Ry

     iteration # 59     ecut=    40.42 Ry     beta=0.07
     Davidson diagonalization with overlap
     ethr =  1.58E-07,  avg # of iterations =  1.0

     negative rho (up, down):  5.651E+00 0.000E+00

     total cpu time spent up to now is    12576.9 secs

     total energy              =   -7079.78907953 Ry
     Harris-Foulkes estimate   =   -7079.78914032 Ry
     estimated scf accuracy    <       0.00084366 Ry

     iteration # 60     ecut=    40.42 Ry     beta=0.07
     Davidson diagonalization with overlap
     ethr =  1.42E-07,  avg # of iterations =  1.5

     negative rho (up, down):  5.653E+00 0.000E+00

     total cpu time spent up to now is    12777.1 secs

     total energy              =   -7079.78903893 Ry
     Harris-Foulkes estimate   =   -7079.78909784 Ry
     estimated scf accuracy    <       0.00075554 Ry

     iteration # 61     ecut=    40.42 Ry     beta=0.07
     Davidson diagonalization with overlap
     ethr =  1.27E-07,  avg # of iterations =  5.0

     negative rho (up, down):  5.662E+00 0.000E+00

     total cpu time spent up to now is    12998.7 secs

     total energy              =   -7079.78882057 Ry
     Harris-Foulkes estimate   =   -7079.78906537 Ry
     estimated scf accuracy    <       0.00102651 Ry

     iteration # 62     ecut=    40.42 Ry     beta=0.07
     Davidson diagonalization with overlap
     ethr =  1.27E-07,  avg # of iterations =  6.3

     negative rho (up, down):  5.662E+00 0.000E+00

     total cpu time spent up to now is    13227.4 secs

     total energy              =   -7079.78890735 Ry
     Harris-Foulkes estimate   =   -7079.78888224 Ry
     estimated scf accuracy    <       0.00044941 Ry

     iteration # 63     ecut=    40.42 Ry     beta=0.07
     Davidson diagonalization with overlap
     ethr =  7.57E-08,  avg # of iterations =  3.0

     negative rho (up, down):  5.662E+00 0.000E+00

     total cpu time spent up to now is    13438.7 secs

     total energy              =   -7079.78894632 Ry
     Harris-Foulkes estimate   =   -7079.78892227 Ry
     estimated scf accuracy    <       0.00034560 Ry

     iteration # 64     ecut=    40.42 Ry     beta=0.07
     Davidson diagonalization with overlap
     ethr =  5.82E-08,  avg # of iterations =  5.8

     negative rho (up, down):  5.663E+00 0.000E+00

     total cpu time spent up to now is    13658.4 secs

     total energy              =   -7079.78895213 Ry
     Harris-Foulkes estimate   =   -7079.78895731 Ry
     estimated scf accuracy    <       0.00025634 Ry

     iteration # 65     ecut=    40.42 Ry     beta=0.07
     Davidson diagonalization with overlap
     ethr =  4.32E-08,  avg # of iterations =  2.6

     negative rho (up, down):  5.663E+00 0.000E+00

     total cpu time spent up to now is    13867.3 secs

     total energy              =   -7079.78894483 Ry
     Harris-Foulkes estimate   =   -7079.78895634 Ry
     estimated scf accuracy    <       0.00017792 Ry

     iteration # 66     ecut=    40.42 Ry     beta=0.07
     Davidson diagonalization with overlap
     ethr =  3.00E-08,  avg # of iterations =  6.5

     negative rho (up, down):  5.660E+00 0.000E+00

     total cpu time spent up to now is    14098.4 secs

     total energy              =   -7079.78895048 Ry
     Harris-Foulkes estimate   =   -7079.78895907 Ry
     estimated scf accuracy    <       0.00031531 Ry

     iteration # 67     ecut=    40.42 Ry     beta=0.07
     Davidson diagonalization with overlap
     ethr =  3.00E-08,  avg # of iterations =  6.5

     negative rho (up, down):  5.660E+00 0.000E+00

     total cpu time spent up to now is    14344.2 secs

     total energy              =   -7079.78896986 Ry
     Harris-Foulkes estimate   =   -7079.78897602 Ry
     estimated scf accuracy    <       0.00012195 Ry

     iteration # 68     ecut=    40.42 Ry     beta=0.07
     Davidson diagonalization with overlap
     ethr =  2.05E-08,  avg # of iterations =  1.0

     negative rho (up, down):  5.662E+00 0.000E+00

     total cpu time spent up to now is    14540.2 secs

     total energy              =   -7079.78896000 Ry
     Harris-Foulkes estimate   =   -7079.78897159 Ry
     estimated scf accuracy    <       0.00006886 Ry

     iteration # 69     ecut=    40.42 Ry     beta=0.07
     Davidson diagonalization with overlap
     ethr =  1.16E-08,  avg # of iterations =  6.0

     negative rho (up, down):  5.662E+00 0.000E+00

     total cpu time spent up to now is    14785.1 secs

     total energy              =   -7079.78896607 Ry
     Harris-Foulkes estimate   =   -7079.78896900 Ry
     estimated scf accuracy    <       0.00009896 Ry

     iteration # 70     ecut=    40.42 Ry     beta=0.07
     Davidson diagonalization with overlap
     ethr =  1.16E-08,  avg # of iterations =  1.0

     negative rho (up, down):  5.662E+00 0.000E+00

     total cpu time spent up to now is    14991.3 secs

     total energy              =   -7079.78896172 Ry
     Harris-Foulkes estimate   =   -7079.78896664 Ry
     estimated scf accuracy    <       0.00006508 Ry

     iteration # 71     ecut=    40.42 Ry     beta=0.07
     Davidson diagonalization with overlap
     ethr =  1.10E-08,  avg # of iterations =  6.1

     negative rho (up, down):  5.663E+00 0.000E+00

     total cpu time spent up to now is    15219.2 secs

     total energy              =   -7079.78896293 Ry
     Harris-Foulkes estimate   =   -7079.78896445 Ry
     estimated scf accuracy    <       0.00002048 Ry

     iteration # 72     ecut=    40.42 Ry     beta=0.07
     Davidson diagonalization with overlap
     ethr =  3.45E-09,  avg # of iterations =  2.8

     negative rho (up, down):  5.663E+00 0.000E+00

     total cpu time spent up to now is    15434.5 secs

     total energy              =   -7079.78895938 Ry
     Harris-Foulkes estimate   =   -7079.78896365 Ry
     estimated scf accuracy    <       0.00002313 Ry

     iteration # 73     ecut=    40.42 Ry     beta=0.07
     Davidson diagonalization with overlap
     ethr =  3.45E-09,  avg # of iterations =  2.0

     negative rho (up, down):  5.664E+00 0.000E+00

     total cpu time spent up to now is    15643.3 secs

     total energy              =   -7079.78895898 Ry
     Harris-Foulkes estimate   =   -7079.78896035 Ry
     estimated scf accuracy    <       0.00001169 Ry

     iteration # 74     ecut=    40.42 Ry     beta=0.07
     Davidson diagonalization with overlap
     ethr =  1.97E-09,  avg # of iterations =  2.0

     negative rho (up, down):  5.664E+00 0.000E+00

     total cpu time spent up to now is    15850.1 secs

     total energy              =   -7079.78895879 Ry
     Harris-Foulkes estimate   =   -7079.78895935 Ry
     estimated scf accuracy    <       0.00000690 Ry

     iteration # 75     ecut=    40.42 Ry     beta=0.07
     Davidson diagonalization with overlap
     ethr =  1.16E-09,  avg # of iterations =  2.4

     negative rho (up, down):  5.664E+00 0.000E+00

     total cpu time spent up to now is    16057.7 secs

     total energy              =   -7079.78895915 Ry
     Harris-Foulkes estimate   =   -7079.78895911 Ry
     estimated scf accuracy    <       0.00000346 Ry

     iteration # 76     ecut=    40.42 Ry     beta=0.07
     Davidson diagonalization with overlap
     ethr =  5.82E-10,  avg # of iterations =  7.5

     negative rho (up, down):  5.664E+00 0.000E+00

     total cpu time spent up to now is    16292.4 secs

     total energy              =   -7079.78895897 Ry
     Harris-Foulkes estimate   =   -7079.78895936 Ry
     estimated scf accuracy    <       0.00000570 Ry

     iteration # 77     ecut=    40.42 Ry     beta=0.07
     Davidson diagonalization with overlap
     ethr =  5.82E-10,  avg # of iterations =  1.0

     negative rho (up, down):  5.664E+00 0.000E+00

     total cpu time spent up to now is    16490.7 secs

     total energy              =   -7079.78895891 Ry
     Harris-Foulkes estimate   =   -7079.78895907 Ry
     estimated scf accuracy    <       0.00000252 Ry

     iteration # 78     ecut=    40.42 Ry     beta=0.07
     Davidson diagonalization with overlap
     ethr =  4.23E-10,  avg # of iterations =  7.6

     negative rho (up, down):  5.664E+00 0.000E+00

     total cpu time spent up to now is    16719.7 secs

     total energy              =   -7079.78895905 Ry
     Harris-Foulkes estimate   =   -7079.78895901 Ry
     estimated scf accuracy    <       0.00000164 Ry

     iteration # 79     ecut=    40.42 Ry     beta=0.07
     Davidson diagonalization with overlap
     ethr =  2.77E-10,  avg # of iterations =  8.6

     negative rho (up, down):  5.663E+00 0.000E+00

     total cpu time spent up to now is    16960.8 secs

     total energy              =   -7079.78895913 Ry
     Harris-Foulkes estimate   =   -7079.78895919 Ry
     estimated scf accuracy    <       0.00000274 Ry

     iteration # 80     ecut=    40.42 Ry     beta=0.07
     Davidson diagonalization with overlap
     ethr =  2.77E-10,  avg # of iterations =  1.6

     negative rho (up, down):  5.663E+00 0.000E+00

     total cpu time spent up to now is    17169.7 secs

     total energy              =   -7079.78895875 Ry
     Harris-Foulkes estimate   =   -7079.78895915 Ry
     estimated scf accuracy    <       0.00000266 Ry

     iteration # 81     ecut=    40.42 Ry     beta=0.07
     Davidson diagonalization with overlap
     ethr =  2.77E-10,  avg # of iterations =  2.1

     negative rho (up, down):  5.664E+00 0.000E+00

     total cpu time spent up to now is    17375.8 secs

     total energy              =   -7079.78895876 Ry
     Harris-Foulkes estimate   =   -7079.78895880 Ry
     estimated scf accuracy    <       0.00000135 Ry

     iteration # 82     ecut=    40.42 Ry     beta=0.07
     Davidson diagonalization with overlap
     ethr =  2.28E-10,  avg # of iterations =  1.0

     negative rho (up, down):  5.664E+00 0.000E+00

     total cpu time spent up to now is    17572.2 secs

     total energy              =   -7079.78895868 Ry
     Harris-Foulkes estimate   =   -7079.78895876 Ry
     estimated scf accuracy    <       0.00000130 Ry

     iteration # 83     ecut=    40.42 Ry     beta=0.07
     Davidson diagonalization with overlap
     ethr =  2.19E-10,  avg # of iterations =  1.0

     negative rho (up, down):  5.664E+00 0.000E+00

     total cpu time spent up to now is    17766.5 secs

     total energy              =   -7079.78895867 Ry
     Harris-Foulkes estimate   =   -7079.78895870 Ry
     estimated scf accuracy    <       0.00000083 Ry

     iteration # 84     ecut=    40.42 Ry     beta=0.07
     Davidson diagonalization with overlap
     ethr =  1.40E-10,  avg # of iterations =  6.5

     negative rho (up, down):  5.664E+00 0.000E+00

     total cpu time spent up to now is    17992.9 secs

     total energy              =   -7079.78895869 Ry
     Harris-Foulkes estimate   =   -7079.78895870 Ry
     estimated scf accuracy    <       0.00000054 Ry

     iteration # 85     ecut=    40.42 Ry     beta=0.07
     Davidson diagonalization with overlap
     ethr =  9.17E-11,  avg # of iterations =  7.5

     negative rho (up, down):  5.663E+00 0.000E+00

     total cpu time spent up to now is    18221.0 secs

     total energy              =   -7079.78895879 Ry
     Harris-Foulkes estimate   =   -7079.78895872 Ry
     estimated scf accuracy    <       0.00000057 Ry

     iteration # 86     ecut=    40.42 Ry     beta=0.07
     Davidson diagonalization with overlap
     ethr =  9.17E-11,  avg # of iterations =  3.8

     negative rho (up, down):  5.663E+00 0.000E+00

     total cpu time spent up to now is    18434.6 secs

     total energy              =   -7079.78895884 Ry
     Harris-Foulkes estimate   =   -7079.78895880 Ry
     estimated scf accuracy    <       0.00000079 Ry

     iteration # 87     ecut=    40.42 Ry     beta=0.07
     Davidson diagonalization with overlap
     ethr =  9.17E-11,  avg # of iterations =  2.3

     negative rho (up, down):  5.663E+00 0.000E+00

     total cpu time spent up to now is    18633.1 secs

     End of self-consistent calculation

          k = 0.0000 0.0000 0.0000 ( 92333 PWs)   bands (ev):

   -53.6432 -53.6374 -53.6288 -53.6067 -53.6027 -53.5971 -53.5765 -53.5728
   -53.5568 -53.5550 -53.5540 -53.5527 -53.5474 -53.5462 -53.5428 -53.5424
   -53.5412 -53.5404 -53.4743 -53.4699 -53.4561 -53.4510 -53.4503 -53.4460
   -53.4392 -53.4373 -53.4340 -53.4276 -53.4271 -53.4262 -53.4247 -53.4240
   -53.4227 -53.4212 -53.4183 -53.4177 -53.3953 -53.3941 -53.3910 -53.3894
   -53.3852 -53.3835 -53.3705 -53.3700 -53.3637 -53.3633 -53.3265 -53.3246
   -53.3192 -53.3173 -53.3163 -53.3157 -53.3153 -53.3136 -53.3077 -53.2792
   -53.2772 -53.2732 -53.2719 -53.2711 -53.2702 -53.2685 -53.2684 -53.2668
   -53.2352 -53.2351 -53.2143 -53.2136 -53.2122 -53.2102 -53.2081 -53.1819
   -53.1458 -53.1437 -53.1422 -53.1409 -53.1403 -53.1389 -53.1380 -53.1339
   -53.1015 -53.0690 -53.0682 -53.0668 -53.0657 -53.0650 -53.0640 -53.0629
   -53.0584 -53.0484 -53.0435 -53.0431 -53.0410 -53.0390 -53.0383 -53.0349
   -23.7469 -23.2000 -22.0365 -21.5901 -21.3411 -21.1735 -20.6781 -20.5657
   -15.3564 -14.4445 -12.9629 -11.8637 -11.1951 -10.1810  -9.4686  -9.3202
    -8.9527  -8.5553  -8.3358  -7.8714  -7.8025  -7.7047  -7.6930  -7.6850
    -7.6837  -7.6827  -7.6815  -7.5996  -7.5151  -7.1375  -7.0128  -7.0112
    -7.0081  -6.9743  -6.9350  -6.9306  -6.9238  -6.6654  -6.5194  -6.4212
    -6.4025  -6.3991  -6.3974  -6.3948  -6.3830  -6.1841  -6.1576  -6.1530
    -6.1377  -6.1362  -6.1297  -6.1288  -6.1282  -6.1273  -5.9016  -5.7352
    -5.5916  -5.5875  -5.5840  -5.5811  -5.5795  -5.5783  -5.5733  -5.5519
    -5.5474  -5.5454  -5.5429  -5.5420  -5.5201  -5.2530  -5.2492  -5.2467
    -5.2453  -5.2375  -5.2318  -5.0698  -4.6700  -4.6668  -4.6573  -4.5912
    -4.5461  -4.5266  -4.5249  -4.5227  -4.5219  -4.5205  -4.3959  -4.3735
    -4.3383  -4.3310  -4.3267  -4.3255  -4.3251  -4.2758  -4.2412  -4.2406
    -4.2356  -4.2340  -4.2286  -4.1906  -4.1903  -4.0965  -4.0466  -4.0304
    -4.0244  -4.0196  -4.0185  -4.0169  -4.0088  -4.0085  -4.0061  -3.9929
    -3.9828  -3.9816  -3.9768  -3.9700  -3.8821  -3.7639  -3.7085  -3.7063
    -3.7043  -3.6991  -3.6920  -3.6608  -3.6301  -3.6231  -3.6161  -3.6132
    -3.6116  -3.5901  -3.5058  -3.3896  -3.3875  -3.3785  -3.2981  -3.1690
    -3.1675  -3.1548  -3.1545  -3.1531  -3.1525  -2.7206  -2.6715  -2.6695
    -2.6628  -2.6604  -2.6600  -2.6587  -2.6294  -2.5679  -2.5415  -2.5310
    -2.5289  -2.5255  -2.5030  -2.4791  -2.4516  -2.4396  -2.4243  -2.2746
    -2.1562  -2.1392  -2.1318  -2.1259  -2.1227  -2.1205  -2.1191  -2.1122
    -2.1110  -2.0819  -2.0746  -2.0656  -2.0634  -2.0609  -2.0601  -1.9103
    -1.8805  -1.8717  -1.8698  -1.8680  -1.8654  -1.8642  -1.8622  -1.8088
    -1.7883  -1.5503  -1.3647  -1.3614  -1.3513  -1.1374  -1.1308  -1.1099
    -1.1079  -1.1068  -1.1062  -1.1056  -1.1054  -0.9523  -0.9409  -0.9394
    -0.9373  -0.9365  -0.9275  -0.5612  -0.5521  -0.5510  -0.5507  -0.5454
    -0.5265  -0.5227  -0.5038

          k = 0.0000 0.0260 0.0000 ( 92317 PWs)   bands (ev):

   -53.6356 -53.6295 -53.6187 -53.6002 -53.5950 -53.5881 -53.5813 -53.5760
   -53.5713 -53.5634 -53.5562 -53.5528 -53.5482 -53.5432 -53.5395 -53.5384
   -53.5316 -53.5283 -53.5205 -53.4958 -53.4938 -53.4871 -53.4698 -53.4662
   -53.4599 -53.4559 -53.4308 -53.4250 -53.4197 -53.4171 -53.4161 -53.4137
   -53.4042 -53.4014 -53.3926 -53.3911 -53.3869 -53.3794 -53.3755 -53.3742
   -53.3712 -53.3677 -53.3631 -53.3540 -53.3530 -53.3501 -53.3377 -53.3340
   -53.3329 -53.3242 -53.3207 -53.3138 -53.3118 -53.3081 -53.3002 -53.2899
   -53.2891 -53.2865 -53.2831 -53.2732 -53.2726 -53.2703 -53.2699 -53.2585
   -53.2425 -53.2379 -53.2295 -53.2186 -53.2109 -53.1967 -53.1938 -53.1793
   -53.1589 -53.1569 -53.1465 -53.1413 -53.1406 -53.1386 -53.1304 -53.1196
   -53.1002 -53.0756 -53.0743 -53.0665 -53.0657 -53.0640 -53.0616 -53.0589
   -53.0537 -53.0489 -53.0465 -53.0441 -53.0408 -53.0385 -53.0379 -53.0347
   -23.7469 -23.2000 -22.0365 -21.5901 -21.3411 -21.1735 -20.6781 -20.5657
   -15.3563 -14.4446 -12.9628 -11.8638 -11.1949 -10.1806  -9.3763  -9.2746
    -8.9524  -8.5563  -8.3422  -8.3080  -7.9107  -7.8993  -7.8545  -7.6653
    -7.6110  -7.5184  -7.3360  -7.3324  -7.2470  -7.1352  -7.0309  -6.9714
    -6.9151  -6.9123  -6.8469  -6.8046  -6.7973  -6.7389  -6.6652  -6.5255
    -6.4573  -6.4285  -6.4218  -6.4064  -6.3876  -6.2930  -6.2878  -6.2706
    -6.2627  -6.1220  -6.1042  -6.1001  -5.9930  -5.9735  -5.9243  -5.9194
    -5.8936  -5.7590  -5.7290  -5.7249  -5.7086  -5.6997  -5.6182  -5.6133
    -5.6011  -5.5920  -5.5857  -5.5552  -5.5236  -5.5134  -5.4312  -5.4165
    -5.0817  -5.0603  -5.0493  -4.8478  -4.7625  -4.7602  -4.6766  -4.6316
    -4.6271  -4.6177  -4.5723  -4.4507  -4.4230  -4.4187  -4.4074  -4.4024
    -4.3989  -4.3953  -4.3471  -4.3345  -4.3219  -4.3103  -4.3064  -4.2415
    -4.2155  -4.2028  -4.1711  -4.1596  -4.1400  -4.1181  -4.1128  -4.1029
    -4.0899  -4.0839  -4.0664  -4.0387  -4.0115  -3.9981  -3.9247  -3.9156
    -3.7845  -3.7720  -3.7707  -3.7615  -3.7425  -3.7030  -3.6798  -3.6623
    -3.6437  -3.5981  -3.5463  -3.5404  -3.5102  -3.4909  -3.4839  -3.4682
    -3.4487  -3.4398  -3.3919  -3.3570  -3.3205  -3.2946  -3.2633  -3.2596
    -3.2406  -3.1859  -3.1572  -3.1481  -3.1115  -3.1093  -2.8275  -2.8193
    -2.7795  -2.6838  -2.6395  -2.6173  -2.5694  -2.5548  -2.5277  -2.5199
    -2.4973  -2.4678  -2.4500  -2.3472  -2.3169  -2.2529  -2.1794  -2.1740
    -2.1702  -2.1619  -2.1508  -2.1498  -2.0997  -2.0916  -2.0656  -2.0602
    -2.0428  -2.0358  -2.0176  -2.0119  -1.9614  -1.9567  -1.8938  -1.8663
    -1.8584  -1.8135  -1.8002  -1.7789  -1.6880  -1.6872  -1.6830  -1.6751
    -1.6127  -1.5560  -1.4899  -1.4477  -1.4403  -1.3743  -1.2341  -1.2268
    -1.2040  -1.2009  -1.1207  -1.1052  -1.0975  -1.0821  -1.0775  -1.0104
    -1.0081  -0.9747  -0.9555  -0.9516  -0.9447  -0.9253  -0.6991  -0.6717
    -0.6676  -0.6530  -0.6113

          k = 0.0000-0.0520 0.0000 ( 92358 PWs)   bands (ev):

   -53.6248 -53.6149 -53.6014 -53.6000 -53.5937 -53.5811 -53.5763 -53.5724
   -53.5708 -53.5700 -53.5688 -53.5650 -53.5582 -53.5455 -53.5403 -53.5352
   -53.5289 -53.5216 -53.5173 -53.5158 -53.5053 -53.5028 -53.4977 -53.4967
   -53.4791 -53.4710 -53.4375 -53.4275 -53.4096 -53.4081 -53.4035 -53.3977
   -53.3949 -53.3927 -53.3922 -53.3912 -53.3739 -53.3637 -53.3616 -53.3572
   -53.3552 -53.3532 -53.3520 -53.3513 -53.3428 -53.3426 -53.3406 -53.3254
   -53.3216 -53.3199 -53.3189 -53.3153 -53.3123 -53.3107 -53.3072 -53.3037
   -53.3024 -53.2998 -53.2937 -53.2845 -53.2825 -53.2768 -53.2723 -53.2475
   -53.2464 -53.2450 -53.2381 -53.2207 -53.2100 -53.1829 -53.1796 -53.1780
   -53.1727 -53.1687 -53.1517 -53.1413 -53.1403 -53.1389 -53.1265 -53.1105
   -53.0978 -53.0813 -53.0799 -53.0662 -53.0655 -53.0638 -53.0569 -53.0562
   -53.0526 -53.0494 -53.0477 -53.0466 -53.0408 -53.0381 -53.0376 -53.0346
   -23.7469 -23.2000 -22.0365 -21.5901 -21.3411 -21.1735 -20.6781 -20.5657
   -15.3563 -14.4446 -12.9628 -11.8639 -11.1947 -10.1803  -9.3479  -8.9677
    -8.9100  -8.8879  -8.5519  -8.3360  -7.9756  -7.9682  -7.8597  -7.6150
    -7.5187  -7.2743  -7.2600  -7.1374  -7.0731  -7.0723  -6.9777  -6.8837
    -6.8786  -6.8774  -6.8749  -6.6776  -6.6678  -6.6607  -6.6415  -6.6391
    -6.6342  -6.6332  -6.5201  -6.4389  -6.4332  -6.4313  -6.4050  -6.3749
    -6.3547  -6.0412  -6.0041  -6.0010  -5.9961  -5.9854  -5.9639  -5.9562
    -5.9553  -5.9501  -5.9090  -5.9065  -5.9031  -5.8650  -5.7096  -5.6636
    -5.6606  -5.5831  -5.5598  -5.5532  -5.5497  -5.5333  -5.5207  -5.4961
    -5.0761  -5.0157  -5.0089  -4.8453  -4.8341  -4.6070  -4.5645  -4.5598
    -4.5417  -4.5193  -4.5089  -4.5061  -4.4862  -4.4795  -4.4377  -4.4251
    -4.4146  -4.3934  -4.3930  -4.3916  -4.3764  -4.3723  -4.3309  -4.3118
    -4.2935  -4.2796  -4.2738  -4.2735  -4.2026  -4.1952  -4.1877  -4.1806
    -4.0771  -3.9963  -3.9553  -3.9461  -3.9444  -3.8967  -3.8017  -3.7947
    -3.7585  -3.7458  -3.7346  -3.7332  -3.7198  -3.6824  -3.6573  -3.6486
    -3.6446  -3.5960  -3.5934  -3.5089  -3.4758  -3.4711  -3.3061  -3.2901
    -3.2758  -3.2381  -3.2333  -3.2262  -3.2245  -3.1622  -3.1558  -3.1182
    -3.1015  -2.9296  -2.9198  -2.9148  -2.9031  -2.8994  -2.8893  -2.8479
    -2.8381  -2.7045  -2.6674  -2.6440  -2.6312  -2.6204  -2.6160  -2.6058
    -2.5734  -2.5617  -2.4947  -2.4732  -2.2787  -2.2746  -2.2591  -2.2559
    -2.2504  -2.2426  -2.1872  -2.1612  -2.1562  -2.1499  -2.0924  -1.9728
    -1.9651  -1.8260  -1.7553  -1.7444  -1.7394  -1.7346  -1.6595  -1.6459
    -1.6422  -1.6385  -1.5773  -1.5630  -1.5625  -1.5564  -1.5509  -1.5480
    -1.5454  -1.5202  -1.5142  -1.5008  -1.4944  -1.3972  -1.3855  -1.3790
    -1.3401  -1.2847  -1.2816  -1.2580  -1.2483  -1.2458  -1.2289  -1.1053
    -1.0941  -1.0308  -1.0259  -1.0033  -0.9988  -0.9238  -0.9212  -0.9165
    -0.9119  -0.8386  -0.8365

          k = 0.0225 0.0390 0.0000 ( 92317 PWs)   bands (ev):

   -53.6227 -53.6210 -53.6014 -53.5931 -53.5924 -53.5847 -53.5783 -53.5754
   -53.5668 -53.5656 -53.5617 -53.5600 -53.5523 -53.5519 -53.5458 -53.5451
   -53.5405 -53.5268 -53.5229 -53.5211 -53.5006 -53.4995 -53.4967 -53.4706
   -53.4580 -53.4566 -53.4500 -53.4471 -53.4331 -53.4322 -53.4056 -53.3917
   -53.3898 -53.3861 -53.3794 -53.3756 -53.3718 -53.3667 -53.3609 -53.3577
   -53.3571 -53.3524 -53.3517 -53.3482 -53.3389 -53.3380 -53.3340 -53.3323
   -53.3313 -53.3286 -53.3255 -53.3169 -53.3129 -53.3086 -53.3046 -53.3025
   -53.2973 -53.2942 -53.2931 -53.2921 -53.2889 -53.2776 -53.2569 -53.2566
   -53.2448 -53.2445 -53.2376 -53.2247 -53.2017 -53.1944 -53.1797 -53.1759
   -53.1686 -53.1595 -53.1570 -53.1529 -53.1401 -53.1309 -53.1261 -53.1108
   -53.0986 -53.0842 -53.0744 -53.0709 -53.0649 -53.0597 -53.0590 -53.0569
   -53.0528 -53.0501 -53.0481 -53.0441 -53.0414 -53.0384 -53.0374 -53.0346
   -23.7469 -23.2000 -22.0365 -21.5901 -21.3411 -21.1735 -20.6781 -20.5657
   -15.3563 -14.4446 -12.9628 -11.8639 -11.1947 -10.1803  -9.3480  -9.0392
    -8.9488  -8.5696  -8.5345  -8.5200  -8.3292  -7.8647  -7.6161  -7.5202
    -7.3912  -7.3471  -7.3418  -7.1382  -7.0343  -7.0280  -6.9711  -6.9410
    -6.9397  -6.9136  -6.8997  -6.7906  -6.6917  -6.6848  -6.6713  -6.6591
    -6.6503  -6.6151  -6.5224  -6.4993  -6.4431  -6.4297  -6.2491  -6.2372
    -6.2347  -6.2300  -6.0711  -6.0610  -6.0208  -6.0115  -5.9852  -5.9338
    -5.9178  -5.8958  -5.8319  -5.8090  -5.8039  -5.7964  -5.7911  -5.7677
    -5.7516  -5.6514  -5.5625  -5.5463  -5.4563  -5.4383  -5.3993  -5.2716
    -5.2679  -5.0734  -4.9319  -4.9245  -4.9078  -4.7468  -4.7452  -4.6200
    -4.5983  -4.5823  -4.5557  -4.5403  -4.5257  -4.5123  -4.4745  -4.4386
    -4.4337  -4.4222  -4.4017  -4.3991  -4.3942  -4.3923  -4.3897  -4.2933
    -4.2834  -4.2707  -4.2583  -4.2495  -4.1271  -4.0973  -4.0784  -4.0716
    -4.0559  -3.9926  -3.9287  -3.8887  -3.8804  -3.8343  -3.7912  -3.7695
    -3.7584  -3.7456  -3.7268  -3.7119  -3.5394  -3.5360  -3.5309  -3.5218
    -3.5095  -3.4965  -3.4915  -3.4475  -3.4396  -3.3961  -3.3945  -3.3513
    -3.3443  -3.3361  -3.3073  -3.2630  -3.2536  -3.1974  -3.1869  -3.1689
    -3.1652  -3.0519  -3.0411  -3.0327  -3.0309  -3.0030  -2.9931  -2.9871
    -2.8028  -2.7910  -2.7091  -2.6779  -2.6116  -2.5970  -2.5150  -2.4909
    -2.4367  -2.4201  -2.4156  -2.4106  -2.3605  -2.3195  -2.2535  -2.2052
    -2.1959  -2.1926  -2.1686  -2.1433  -2.1247  -2.0694  -2.0593  -2.0221
    -1.9956  -1.9257  -1.9163  -1.8659  -1.8398  -1.8081  -1.6741  -1.6487
    -1.6433  -1.6357  -1.6296  -1.6226  -1.6191  -1.6123  -1.5507  -1.5454
    -1.5413  -1.5280  -1.5061  -1.4948  -1.4253  -1.4185  -1.3846  -1.3691
    -1.3436  -1.3247  -1.3022  -1.2700  -1.1548  -1.1467  -1.1401  -1.1156
    -1.1085  -1.0791  -1.0709  -0.9992  -0.9929  -0.9744  -0.9637  -0.9560
    -0.9327  -0.8756  -0.8712

          k =-0.0225 0.0130 0.0000 ( 92317 PWs)   bands (ev):

   -53.6375 -53.6274 -53.6189 -53.6016 -53.5940 -53.5875 -53.5820 -53.5751
   -53.5710 -53.5634 -53.5570 -53.5515 -53.5475 -53.5433 -53.5405 -53.5385
   -53.5317 -53.5286 -53.5205 -53.4951 -53.4943 -53.4870 -53.4710 -53.4662
   -53.4598 -53.4565 -53.4317 -53.4254 -53.4198 -53.4172 -53.4153 -53.4129
   -53.4039 -53.4005 -53.3919 -53.3912 -53.3864 -53.3798 -53.3754 -53.3740
   -53.3705 -53.3686 -53.3636 -53.3542 -53.3537 -53.3497 -53.3383 -53.3336
   -53.3328 -53.3242 -53.3204 -53.3136 -53.3121 -53.3081 -53.3008 -53.2899
   -53.2887 -53.2864 -53.2832 -53.2733 -53.2726 -53.2705 -53.2698 -53.2584
   -53.2424 -53.2380 -53.2293 -53.2189 -53.2114 -53.1969 -53.1930 -53.1788
   -53.1591 -53.1570 -53.1476 -53.1433 -53.1396 -53.1376 -53.1292 -53.1200
   -53.1007 -53.0751 -53.0737 -53.0679 -53.0656 -53.0630 -53.0618 -53.0595
   -53.0533 -53.0490 -53.0463 -53.0441 -53.0405 -53.0389 -53.0378 -53.0347
   -23.7469 -23.2000 -22.0365 -21.5901 -21.3411 -21.1735 -20.6781 -20.5657
   -15.3563 -14.4446 -12.9628 -11.8637 -11.1950 -10.1807  -9.3744  -9.2764
    -8.9524  -8.5555  -8.3550  -8.2948  -7.9045  -7.9026  -7.8606  -7.6630
    -7.6117  -7.5190  -7.3355  -7.3327  -7.2463  -7.1358  -7.0326  -6.9689
    -6.9153  -6.9130  -6.8459  -6.8042  -6.7990  -6.7399  -6.6646  -6.5228
    -6.4607  -6.4289  -6.4191  -6.4031  -6.3953  -6.2961  -6.2855  -6.2673
    -6.2622  -6.1275  -6.1058  -6.0907  -5.9811  -5.9748  -5.9390  -5.9201
    -5.8886  -5.7725  -5.7239  -5.7132  -5.7094  -5.6807  -5.6202  -5.6162
    -5.6118  -5.5928  -5.5828  -5.5558  -5.5290  -5.5223  -5.4285  -5.4178
    -5.0746  -5.0576  -5.0541  -4.8503  -4.7614  -4.7583  -4.6786  -4.6333
    -4.6272  -4.6142  -4.5735  -4.4532  -4.4217  -4.4214  -4.4068  -4.4056
    -4.3969  -4.3920  -4.3448  -4.3322  -4.3235  -4.3139  -4.3035  -4.2416
    -4.2109  -4.1990  -4.1686  -4.1583  -4.1379  -4.1187  -4.1154  -4.1040
    -4.0969  -4.0892  -4.0660  -4.0495  -4.0139  -3.9928  -3.9175  -3.9155
    -3.7848  -3.7736  -3.7704  -3.7585  -3.7461  -3.7012  -3.6845  -3.6609
    -3.6527  -3.5911  -3.5461  -3.5350  -3.5061  -3.4899  -3.4833  -3.4658
    -3.4477  -3.4452  -3.3922  -3.3583  -3.3155  -3.3024  -3.2649  -3.2561
    -3.2404  -3.1863  -3.1543  -3.1477  -3.1120  -3.1102  -2.8275  -2.8186
    -2.7783  -2.6825  -2.6548  -2.6085  -2.5622  -2.5521  -2.5296  -2.5187
    -2.4975  -2.4748  -2.4473  -2.3535  -2.3186  -2.2562  -2.1743  -2.1725
    -2.1707  -2.1645  -2.1523  -2.1481  -2.0956  -2.0921  -2.0715  -2.0544
    -2.0453  -2.0347  -2.0181  -2.0099  -1.9605  -1.9570  -1.8915  -1.8676
    -1.8621  -1.8141  -1.7930  -1.7768  -1.6880  -1.6868  -1.6853  -1.6726
    -1.6127  -1.5540  -1.4951  -1.4447  -1.4416  -1.3757  -1.2341  -1.2271
    -1.2049  -1.1997  -1.1246  -1.1042  -1.0966  -1.0813  -1.0775  -1.0102
    -1.0080  -0.9761  -0.9550  -0.9517  -0.9460  -0.9276  -0.6991  -0.6712
    -0.6671  -0.6537  -0.6029

          k = 0.0225 0.0130 0.0000 ( 92317 PWs)   bands (ev):

   -53.6349 -53.6300 -53.6191 -53.5989 -53.5964 -53.5879 -53.5810 -53.5765
   -53.5717 -53.5636 -53.5548 -53.5521 -53.5485 -53.5426 -53.5406 -53.5390
   -53.5315 -53.5285 -53.5206 -53.4950 -53.4934 -53.4872 -53.4702 -53.4672
   -53.4593 -53.4563 -53.4297 -53.4258 -53.4201 -53.4179 -53.4159 -53.4144
   -53.4031 -53.4003 -53.3924 -53.3911 -53.3869 -53.3795 -53.3751 -53.3738
   -53.3719 -53.3678 -53.3631 -53.3545 -53.3537 -53.3495 -53.3383 -53.3337
   -53.3328 -53.3239 -53.3212 -53.3130 -53.3121 -53.3086 -53.2999 -53.2905
   -53.2884 -53.2865 -53.2830 -53.2729 -53.2727 -53.2707 -53.2698 -53.2584
   -53.2424 -53.2379 -53.2293 -53.2198 -53.2100 -53.1983 -53.1922 -53.1781
   -53.1603 -53.1562 -53.1466 -53.1439 -53.1421 -53.1377 -53.1258 -53.1207
   -53.1015 -53.0758 -53.0721 -53.0668 -53.0665 -53.0639 -53.0617 -53.0594
   -53.0542 -53.0488 -53.0459 -53.0434 -53.0413 -53.0387 -53.0378 -53.0348
   -23.7469 -23.2000 -22.0365 -21.5901 -21.3411 -21.1735 -20.6781 -20.5657
   -15.3564 -14.4445 -12.9628 -11.8638 -11.1949 -10.1806  -9.3749  -9.2759
    -8.9525  -8.5562  -8.3451  -8.3050  -7.9158  -7.8971  -7.8527  -7.6645
    -7.6103  -7.5187  -7.3364  -7.3318  -7.2473  -7.1355  -7.0322  -6.9700
    -6.9156  -6.9124  -6.8490  -6.8004  -6.7980  -6.7400  -6.6651  -6.5255
    -6.4536  -6.4290  -6.4196  -6.4037  -6.3943  -6.2949  -6.2864  -6.2694
    -6.2658  -6.1263  -6.1029  -6.0952  -5.9854  -5.9745  -5.9348  -5.9203
    -5.8905  -5.7689  -5.7282  -5.7143  -5.7099  -5.6843  -5.6186  -5.6153
    -5.6104  -5.5918  -5.5843  -5.5555  -5.5265  -5.5216  -5.4297  -5.4167
    -5.0776  -5.0575  -5.0517  -4.8491  -4.7634  -4.7574  -4.6780  -4.6314
    -4.6253  -4.6174  -4.5719  -4.4499  -4.4273  -4.4216  -4.4072  -4.4041
    -4.3970  -4.3930  -4.3515  -4.3277  -4.3196  -4.3122  -4.3040  -4.2413
    -4.2094  -4.2000  -4.1833  -4.1590  -4.1328  -4.1174  -4.1113  -4.1035
    -4.0900  -4.0877  -4.0608  -4.0426  -4.0052  -3.9936  -3.9415  -3.9164
    -3.7839  -3.7716  -3.7675  -3.7605  -3.7491  -3.6978  -3.6741  -3.6617
    -3.6513  -3.6016  -3.5487  -3.5374  -3.5098  -3.4925  -3.4826  -3.4735
    -3.4486  -3.4383  -3.3919  -3.3568  -3.3249  -3.2856  -3.2660  -3.2597
    -3.2404  -3.1858  -3.1576  -3.1479  -3.1113  -3.1087  -2.8249  -2.8190
    -2.7808  -2.6707  -2.6407  -2.6129  -2.5879  -2.5431  -2.5325  -2.5208
    -2.4990  -2.4662  -2.4483  -2.3674  -2.3169  -2.2415  -2.1781  -2.1739
    -2.1690  -2.1606  -2.1527  -2.1484  -2.1007  -2.0926  -2.0727  -2.0542
    -2.0444  -2.0319  -2.0177  -2.0106  -1.9649  -1.9556  -1.8903  -1.8668
    -1.8639  -1.8038  -1.7949  -1.7861  -1.6881  -1.6873  -1.6841  -1.6734
    -1.6127  -1.5553  -1.4942  -1.4451  -1.4418  -1.3742  -1.2389  -1.2258
    -1.2038  -1.2003  -1.1201  -1.1044  -1.0968  -1.0831  -1.0760  -1.0127
    -1.0049  -0.9698  -0.9547  -0.9514  -0.9481  -0.9299  -0.6990  -0.6706
    -0.6678  -0.6519  -0.6087

          k = 0.0450-0.0260 0.0000 ( 92358 PWs)   bands (ev):

   -53.6289 -53.6106 -53.6016 -53.5990 -53.5936 -53.5819 -53.5764 -53.5724
   -53.5710 -53.5697 -53.5683 -53.5651 -53.5560 -53.5458 -53.5401 -53.5357
   -53.5300 -53.5215 -53.5174 -53.5158 -53.5063 -53.5030 -53.4982 -53.4961
   -53.4797 -53.4713 -53.4387 -53.4278 -53.4084 -53.4058 -53.4047 -53.3979
   -53.3946 -53.3927 -53.3914 -53.3910 -53.3729 -53.3644 -53.3616 -53.3575
   -53.3551 -53.3535 -53.3518 -53.3510 -53.3431 -53.3418 -53.3411 -53.3253
   -53.3218 -53.3201 -53.3188 -53.3149 -53.3126 -53.3106 -53.3074 -53.3041
   -53.3028 -53.3003 -53.2936 -53.2842 -53.2822 -53.2766 -53.2723 -53.2477
   -53.2463 -53.2448 -53.2378 -53.2210 -53.2108 -53.1814 -53.1791 -53.1782
   -53.1728 -53.1680 -53.1548 -53.1432 -53.1392 -53.1378 -53.1244 -53.1111
   -53.0992 -53.0804 -53.0790 -53.0679 -53.0655 -53.0629 -53.0582 -53.0557
   -53.0525 -53.0487 -53.0478 -53.0465 -53.0405 -53.0387 -53.0374 -53.0346
   -23.7469 -23.2000 -22.0365 -21.5902 -21.3411 -21.1735 -20.6781 -20.5657
   -15.3563 -14.4446 -12.9628 -11.8637 -11.1949 -10.1805  -9.3463  -8.9711
    -8.9089  -8.8865  -8.5550  -8.3315  -7.9743  -7.9700  -7.8633  -7.6120
    -7.5195  -7.2759  -7.2604  -7.1368  -7.0769  -7.0707  -6.9718  -6.8885
    -6.8779  -6.8772  -6.8753  -6.6762  -6.6681  -6.6602  -6.6435  -6.6409
    -6.6350  -6.6336  -6.5127  -6.4394  -6.4337  -6.4315  -6.4045  -6.3734
    -6.3634  -6.0289  -6.0059  -6.0028  -5.9955  -5.9949  -5.9631  -5.9550
    -5.9545  -5.9198  -5.9091  -5.9071  -5.9042  -5.8770  -5.7100  -5.6682
    -5.6625  -5.5796  -5.5592  -5.5533  -5.5484  -5.5296  -5.5243  -5.5140
    -5.0736  -5.0152  -5.0101  -4.8389  -4.8338  -4.6137  -4.5645  -4.5594
    -4.5388  -4.5076  -4.5067  -4.5011  -4.4964  -4.4825  -4.4456  -4.4261
    -4.4140  -4.3962  -4.3927  -4.3896  -4.3721  -4.3678  -4.3259  -4.3127
    -4.2977  -4.2839  -4.2772  -4.2694  -4.1972  -4.1934  -4.1882  -4.1798
    -4.0782  -4.0013  -3.9616  -3.9494  -3.9436  -3.9020  -3.8022  -3.7940
    -3.7606  -3.7367  -3.7332  -3.7316  -3.7205  -3.6819  -3.6600  -3.6554
    -3.6478  -3.5982  -3.5881  -3.5100  -3.4757  -3.4605  -3.3064  -3.2917
    -3.2751  -3.2388  -3.2345  -3.2267  -3.2257  -3.1610  -3.1535  -3.1164
    -3.0986  -2.9235  -2.9181  -2.9171  -2.9019  -2.9000  -2.8909  -2.8479
    -2.8380  -2.7094  -2.6715  -2.6416  -2.6313  -2.6144  -2.6107  -2.6093
    -2.5778  -2.5616  -2.5009  -2.4687  -2.2817  -2.2761  -2.2696  -2.2576
    -2.2487  -2.2361  -2.1920  -2.1655  -2.1582  -2.1507  -2.0849  -1.9659
    -1.9578  -1.8273  -1.7510  -1.7457  -1.7393  -1.7352  -1.6576  -1.6477
    -1.6407  -1.6378  -1.5778  -1.5648  -1.5598  -1.5584  -1.5501  -1.5440
    -1.5415  -1.5222  -1.5133  -1.4989  -1.4938  -1.4092  -1.3865  -1.3736
    -1.3473  -1.2869  -1.2771  -1.2583  -1.2498  -1.2474  -1.2253  -1.1086
    -1.0927  -1.0313  -1.0254  -1.0037  -0.9984  -0.9262  -0.9175  -0.9162
    -0.9147  -0.8373  -0.8365

          k =-0.0450-0.0260 0.0000 ( 92358 PWs)   bands (ev):

   -53.6233 -53.6163 -53.6011 -53.5992 -53.5966 -53.5790 -53.5768 -53.5737
   -53.5706 -53.5701 -53.5687 -53.5657 -53.5556 -53.5458 -53.5399 -53.5362
   -53.5274 -53.5218 -53.5178 -53.5157 -53.5064 -53.5024 -53.4989 -53.4962
   -53.4786 -53.4715 -53.4365 -53.4283 -53.4100 -53.4066 -53.4042 -53.3975
   -53.3952 -53.3926 -53.3924 -53.3905 -53.3730 -53.3646 -53.3628 -53.3573
   -53.3542 -53.3533 -53.3518 -53.3498 -53.3442 -53.3429 -53.3410 -53.3252
   -53.3220 -53.3199 -53.3187 -53.3152 -53.3129 -53.3094 -53.3078 -53.3039
   -53.3019 -53.3001 -53.2935 -53.2849 -53.2823 -53.2759 -53.2729 -53.2478
   -53.2460 -53.2447 -53.2382 -53.2220 -53.2095 -53.1827 -53.1792 -53.1770
   -53.1726 -53.1667 -53.1556 -53.1438 -53.1421 -53.1377 -53.1191 -53.1117
   -53.1020 -53.0820 -53.0751 -53.0668 -53.0664 -53.0633 -53.0603 -53.0555
   -53.0522 -53.0493 -53.0473 -53.0452 -53.0410 -53.0386 -53.0374 -53.0347
   -23.7469 -23.2000 -22.0365 -21.5901 -21.3411 -21.1735 -20.6781 -20.5657
   -15.3563 -14.4446 -12.9628 -11.8639 -11.1946 -10.1804  -9.3467  -8.9728
    -8.9071  -8.8866  -8.5537  -8.3346  -7.9800  -7.9665  -7.8585  -7.6126
    -7.5185  -7.2742  -7.2607  -7.1381  -7.0757  -7.0717  -6.9753  -6.8856
    -6.8786  -6.8764  -6.8753  -6.6792  -6.6674  -6.6621  -6.6416  -6.6377
    -6.6351  -6.6323  -6.5039  -6.4390  -6.4342  -6.4329  -6.4131  -6.3732
    -6.3629  -6.0307  -6.0069  -6.0004  -5.9975  -5.9943  -5.9617  -5.9560
    -5.9554  -5.9285  -5.9096  -5.9071  -5.9023  -5.8777  -5.7122  -5.6650
    -5.6618  -5.5804  -5.5601  -5.5526  -5.5481  -5.5308  -5.5212  -5.5115
    -5.0738  -5.0150  -5.0099  -4.8370  -4.8362  -4.6068  -4.5638  -4.5576
    -4.5299  -4.5186  -4.5083  -4.5074  -4.4954  -4.4860  -4.4331  -4.4233
    -4.4088  -4.3978  -4.3935  -4.3901  -4.3750  -4.3685  -4.3283  -4.3113
    -4.3018  -4.2830  -4.2764  -4.2674  -4.2112  -4.1923  -4.1884  -4.1805
    -4.0715  -4.0011  -3.9524  -3.9506  -3.9408  -3.8894  -3.8030  -3.7942
    -3.7720  -3.7452  -3.7344  -3.7300  -3.7253  -3.6789  -3.6566  -3.6507
    -3.6481  -3.5994  -3.5775  -3.5086  -3.4805  -3.4731  -3.3046  -3.2901
    -3.2756  -3.2352  -3.2326  -3.2271  -3.2245  -3.1652  -3.1544  -3.1198
    -3.1044  -2.9410  -2.9228  -2.9078  -2.9030  -2.9002  -2.8893  -2.8448
    -2.8387  -2.6908  -2.6646  -2.6472  -2.6271  -2.6166  -2.6124  -2.6086
    -2.5871  -2.5570  -2.5009  -2.4729  -2.2916  -2.2733  -2.2624  -2.2577
    -2.2485  -2.2360  -2.1913  -2.1644  -2.1565  -2.1516  -2.0756  -1.9701
    -1.9604  -1.8285  -1.7576  -1.7430  -1.7397  -1.7355  -1.6584  -1.6483
    -1.6409  -1.6377  -1.5753  -1.5651  -1.5614  -1.5588  -1.5506  -1.5471
    -1.5399  -1.5207  -1.5135  -1.5006  -1.4953  -1.4053  -1.3875  -1.3711
    -1.3507  -1.2867  -1.2774  -1.2591  -1.2496  -1.2467  -1.2202  -1.1058
    -1.0930  -1.0308  -1.0262  -1.0025  -0.9989  -0.9255  -0.9198  -0.9191
    -0.9140  -0.8378  -0.8376

          k =-0.0225 0.0390 0.0000 ( 92317 PWs)   bands (ev):

   -53.6284 -53.6133 -53.6031 -53.5936 -53.5923 -53.5860 -53.5772 -53.5731
   -53.5670 -53.5662 -53.5613 -53.5608 -53.5529 -53.5522 -53.5457 -53.5450
   -53.5405 -53.5259 -53.5232 -53.5211 -53.5010 -53.4997 -53.4965 -53.4725
   -53.4584 -53.4559 -53.4493 -53.4474 -53.4331 -53.4323 -53.4038 -53.3924
   -53.3899 -53.3861 -53.3794 -53.3766 -53.3712 -53.3664 -53.3608 -53.3572
   -53.3562 -53.3527 -53.3519 -53.3485 -53.3391 -53.3384 -53.3342 -53.3320
   -53.3314 -53.3285 -53.3249 -53.3169 -53.3134 -53.3083 -53.3050 -53.3028
   -53.2977 -53.2935 -53.2928 -53.2920 -53.2898 -53.2772 -53.2568 -53.2566
   -53.2450 -53.2445 -53.2372 -53.2249 -53.2005 -53.1958 -53.1805 -53.1754
   -53.1683 -53.1588 -53.1568 -53.1538 -53.1384 -53.1314 -53.1273 -53.1115
   -53.0968 -53.0850 -53.0745 -53.0713 -53.0648 -53.0600 -53.0584 -53.0567
   -53.0524 -53.0503 -53.0472 -53.0460 -53.0407 -53.0385 -53.0375 -53.0346
   -23.7469 -23.2000 -22.0365 -21.5901 -21.3411 -21.1735 -20.6781 -20.5657
   -15.3563 -14.4446 -12.9628 -11.8638 -11.1948 -10.1804  -9.3477  -9.0391
    -8.9490  -8.5688  -8.5376  -8.5181  -8.3283  -7.8644  -7.6163  -7.5206
    -7.3918  -7.3485  -7.3426  -7.1360  -7.0352  -7.0280  -6.9722  -6.9404
    -6.9376  -6.9131  -6.8992  -6.7887  -6.7004  -6.6867  -6.6649  -6.6550
    -6.6518  -6.6128  -6.5496  -6.4755  -6.4440  -6.4333  -6.2447  -6.2379
    -6.2327  -6.2276  -6.0695  -6.0664  -6.0291  -6.0047  -5.9843  -5.9313
    -5.9187  -5.8946  -5.8319  -5.8083  -5.8037  -5.7963  -5.7918  -5.7657
    -5.7519  -5.6537  -5.5611  -5.5480  -5.4556  -5.4381  -5.4009  -5.2713
    -5.2666  -5.0747  -4.9319  -4.9227  -4.9082  -4.7466  -4.7454  -4.6144
    -4.6056  -4.5873  -4.5530  -4.5405  -4.5254  -4.5121  -4.4762  -4.4540
    -4.4284  -4.4122  -4.4053  -4.3966  -4.3943  -4.3924  -4.3901  -4.2903
    -4.2797  -4.2707  -4.2576  -4.2482  -4.1505  -4.0994  -4.0782  -4.0719
    -4.0484  -3.9747  -3.9281  -3.8855  -3.8802  -3.8372  -3.7888  -3.7678
    -3.7555  -3.7454  -3.7327  -3.7261  -3.5398  -3.5345  -3.5314  -3.5224
    -3.5063  -3.4960  -3.4889  -3.4448  -3.4369  -3.3955  -3.3949  -3.3535
    -3.3478  -3.3380  -3.3089  -3.2622  -3.2556  -3.1961  -3.1837  -3.1699
    -3.1635  -3.0512  -3.0397  -3.0380  -3.0312  -2.9999  -2.9921  -2.9820
    -2.7990  -2.7795  -2.7276  -2.6761  -2.6210  -2.5968  -2.5146  -2.4987
    -2.4309  -2.4252  -2.4165  -2.4048  -2.3539  -2.3119  -2.2536  -2.2069
    -2.1939  -2.1926  -2.1773  -2.1419  -2.1256  -2.0697  -2.0610  -2.0216
    -1.9921  -1.9263  -1.9160  -1.8675  -1.8422  -1.8071  -1.6687  -1.6467
    -1.6444  -1.6352  -1.6302  -1.6210  -1.6205  -1.6084  -1.5498  -1.5455
    -1.5422  -1.5282  -1.5096  -1.4969  -1.4251  -1.4197  -1.3818  -1.3687
    -1.3460  -1.3251  -1.3000  -1.2728  -1.1560  -1.1468  -1.1403  -1.1171
    -1.1074  -1.0810  -1.0695  -0.9988  -0.9934  -0.9749  -0.9622  -0.9565
    -0.9307  -0.8761  -0.8695

          k = 0.0450-0.0000 0.0000 ( 92317 PWs)   bands (ev):

   -53.6277 -53.6144 -53.6036 -53.5932 -53.5922 -53.5847 -53.5775 -53.5748
   -53.5666 -53.5654 -53.5613 -53.5601 -53.5529 -53.5526 -53.5461 -53.5448
   -53.5404 -53.5266 -53.5225 -53.5211 -53.5013 -53.5000 -53.4966 -53.4710
   -53.4584 -53.4569 -53.4499 -53.4465 -53.4335 -53.4327 -53.4041 -53.3920
   -53.3892 -53.3863 -53.3782 -53.3753 -53.3727 -53.3674 -53.3614 -53.3571
   -53.3565 -53.3523 -53.3519 -53.3475 -53.3391 -53.3373 -53.3344 -53.3336
   -53.3302 -53.3292 -53.3258 -53.3171 -53.3133 -53.3081 -53.3050 -53.3026
   -53.2964 -53.2953 -53.2931 -53.2916 -53.2883 -53.2778 -53.2569 -53.2566
   -53.2448 -53.2444 -53.2377 -53.2246 -53.2034 -53.1926 -53.1793 -53.1758
   -53.1683 -53.1603 -53.1566 -53.1542 -53.1397 -53.1302 -53.1263 -53.1102
   -53.0998 -53.0834 -53.0741 -53.0714 -53.0647 -53.0599 -53.0590 -53.0577
   -53.0515 -53.0504 -53.0486 -53.0435 -53.0416 -53.0386 -53.0374 -53.0346
   -23.7469 -23.2000 -22.0365 -21.5901 -21.3411 -21.1735 -20.6781 -20.5657
   -15.3563 -14.4446 -12.9628 -11.8638 -11.1948 -10.1805  -9.3469  -9.0415
    -8.9473  -8.5714  -8.5362  -8.5169  -8.3287  -7.8646  -7.6159  -7.5200
    -7.3923  -7.3480  -7.3430  -7.1362  -7.0336  -7.0292  -6.9719  -6.9418
    -6.9365  -6.9137  -6.8991  -6.7911  -6.6955  -6.6865  -6.6691  -6.6546
    -6.6520  -6.6126  -6.5395  -6.4890  -6.4441  -6.4264  -6.2449  -6.2369
    -6.2327  -6.2274  -6.0774  -6.0648  -6.0361  -5.9905  -5.9845  -5.9278
    -5.9252  -5.8999  -5.8318  -5.8090  -5.8054  -5.7957  -5.7890  -5.7551
    -5.7511  -5.6618  -5.5614  -5.5487  -5.4578  -5.4378  -5.4026  -5.2706
    -5.2637  -5.0743  -4.9286  -4.9211  -4.9152  -4.7473  -4.7450  -4.6227
    -4.6010  -4.5804  -4.5543  -4.5394  -4.5266  -4.5117  -4.4853  -4.4351
    -4.4275  -4.4164  -4.4078  -4.3963  -4.3944  -4.3923  -4.3888  -4.2939
    -4.2786  -4.2691  -4.2572  -4.2498  -4.1392  -4.0975  -4.0802  -4.0722
    -4.0533  -3.9774  -3.9289  -3.9049  -3.8802  -3.8310  -3.7871  -3.7631
    -3.7598  -3.7466  -3.7264  -3.7189  -3.5408  -3.5365  -3.5307  -3.5196
    -3.5106  -3.4964  -3.4893  -3.4466  -3.4392  -3.3966  -3.3943  -3.3526
    -3.3466  -3.3378  -3.3081  -3.2637  -3.2556  -3.1952  -3.1846  -3.1679
    -3.1647  -3.0498  -3.0405  -3.0355  -3.0318  -3.0002  -2.9936  -2.9860
    -2.8022  -2.7851  -2.7137  -2.6731  -2.6231  -2.5950  -2.5122  -2.4985
    -2.4327  -2.4230  -2.4143  -2.4000  -2.3720  -2.3148  -2.2552  -2.2036
    -2.1952  -2.1930  -2.1767  -2.1412  -2.1233  -2.0711  -2.0482  -2.0229
    -1.9974  -1.9295  -1.9169  -1.8688  -1.8443  -1.8030  -1.6671  -1.6457
    -1.6432  -1.6359  -1.6300  -1.6205  -1.6202  -1.6014  -1.5562  -1.5476
    -1.5401  -1.5315  -1.5071  -1.4960  -1.4284  -1.4187  -1.3814  -1.3724
    -1.3358  -1.3324  -1.3031  -1.2702  -1.1551  -1.1461  -1.1389  -1.1176
    -1.1068  -1.0808  -1.0725  -0.9997  -0.9915  -0.9705  -0.9622  -0.9564
    -0.9342  -0.8751  -0.8720

     the Fermi energy is    -1.0330 ev

!    total energy              =   -7079.78895866 Ry
     Harris-Foulkes estimate   =   -7079.78895886 Ry
     estimated scf accuracy    <       0.00000029 Ry

     The total energy is the sum of the following terms:

     one-electron contribution =  -63620.77992590 Ry
     hartree contribution      =   31868.21421494 Ry
     xc contribution           =   -1905.29660495 Ry
     ewald contribution        =   26578.22571819 Ry
     smearing contrib. (-TS)   =      -0.15236094 Ry

     convergence has been achieved in  87 iterations

     Forces acting on atoms (Ry/au):


     negative rho (up, down):  5.663E+00 0.000E+00
     atom    1 type  1   force =    -0.00050497    0.00065651   -0.02082455
     atom    2 type  1   force =    -0.00049624   -0.00080131    0.01966489
     atom    3 type  1   force =    -0.00016122   -0.00009688   -0.01988911
     atom    4 type  1   force =    -0.00005768    0.00018143    0.01954320
     atom    5 type  1   force =     0.00008296   -0.00063037   -0.02043741
     atom    6 type  1   force =    -0.00007258    0.00011589    0.02000033
     atom    7 type  1   force =     0.00064477    0.00010296   -0.02005695
     atom    8 type  1   force =     0.00003152    0.00009440    0.02005951
     atom    9 type  1   force =    -0.00052905   -0.00015064   -0.02029256
     atom   10 type  1   force =     0.00099753   -0.00065186    0.02067951
     atom   11 type  1   force =    -0.00021025    0.00046201   -0.02059494
     atom   12 type  1   force =    -0.00085512   -0.00302090    0.01765607
     atom   13 type  1   force =    -0.00004967   -0.00055783   -0.02052150
[...]
    -7.4442  -7.4110  -7.4065  -7.0970  -7.0935  -7.0135  -7.0049  -6.9960
    -6.9675  -6.9657  -6.8737  -6.8470  -6.7528  -6.7506  -6.7193  -6.7176
    -6.6770  -6.5898  -6.5108  -6.5076  -6.4915  -6.4412  -6.3044  -6.3009
    -6.2966  -6.2950  -6.1318  -6.1300  -6.0797  -6.0579  -6.0502  -6.0045
    -5.9849  -5.9829  -5.8727  -5.8716  -5.8681  -5.8638  -5.8546  -5.8182
    -5.8152  -5.6143  -5.6068  -5.5229  -5.5036  -5.4673  -5.3380  -5.3358
    -5.3070  -5.1553  -4.9918  -4.9877  -4.9763  -4.8103  -4.8100  -4.6648
    -4.6631  -4.6099  -4.6056  -4.6031  -4.5799  -4.5642  -4.5359  -4.4989
    -4.4958  -4.4696  -4.4670  -4.4643  -4.4616  -4.4600  -4.4588  -4.3557
    -4.3383  -4.3350  -4.3196  -4.3156  -4.1861  -4.1478  -4.1411  -4.1357
    -4.0838  -4.0437  -3.9921  -3.9744  -3.9447  -3.9050  -3.8652  -3.8512
    -3.8267  -3.8123  -3.8020  -3.7905  -3.6032  -3.6010  -3.5947  -3.5888
    -3.5646  -3.5610  -3.5579  -3.5078  -3.5055  -3.4603  -3.4593  -3.4197
    -3.4125  -3.4085  -3.3999  -3.3283  -3.3217  -3.2583  -3.2520  -3.2341
    -3.2334  -3.1099  -3.1043  -3.1008  -3.0986  -3.0648  -3.0571  -3.0543
    -2.9306  -2.8588  -2.8541  -2.7790  -2.7212  -2.6678  -2.6298  -2.5049
    -2.4904  -2.4875  -2.4852  -2.4633  -2.3946  -2.3199  -2.3166  -2.2920
    -2.2751  -2.2583  -2.2567  -2.2085  -2.2006  -2.1326  -2.1241  -2.0869
    -2.0759  -1.9857  -1.9823  -1.9188  -1.9060  -1.8202  -1.7163  -1.7125
    -1.7111  -1.6972  -1.6958  -1.6851  -1.6834  -1.6725  -1.6121  -1.6110
    -1.6074  -1.5745  -1.5694  -1.5255  -1.4868  -1.4851  -1.4439  -1.4381
    -1.4122  -1.3970  -1.3796  -1.3444  -1.2152  -1.2133  -1.2098  -1.1826
    -1.1783  -1.1445  -1.1385  -1.0626  -1.0609  -1.0366  -1.0249  -1.0239
    -1.0220  -0.9424  -0.9396

          k = 0.0450-0.0000 0.0000 ( 92317 PWs)   bands (ev):

   -53.6808 -53.6650 -53.6641 -53.6586 -53.6582 -53.6484 -53.6373 -53.6350
   -53.6338 -53.6329 -53.6275 -53.6273 -53.6173 -53.6169 -53.6122 -53.6105
   -53.6086 -53.5902 -53.5885 -53.5880 -53.5663 -53.5646 -53.5633 -53.5287
   -53.5267 -53.5235 -53.5150 -53.5137 -53.4998 -53.4995 -53.4670 -53.4534
   -53.4527 -53.4473 -53.4461 -53.4349 -53.4340 -53.4281 -53.4246 -53.4241
   -53.4199 -53.4193 -53.4159 -53.4066 -53.4062 -53.4019 -53.4004 -53.4003
   -53.3996 -53.3921 -53.3831 -53.3823 -53.3763 -53.3714 -53.3706 -53.3643
   -53.3630 -53.3626 -53.3603 -53.3602 -53.3468 -53.3240 -53.3238 -53.3172
   -53.3116 -53.3098 -53.3060 -53.2763 -53.2725 -53.2540 -53.2483 -53.2446
   -53.2321 -53.2286 -53.2255 -53.2243 -53.2045 -53.1975 -53.1959 -53.1761
   -53.1595 -53.1479 -53.1435 -53.1402 -53.1329 -53.1302 -53.1274 -53.1263
   -53.1225 -53.1203 -53.1188 -53.1133 -53.1122 -53.1089 -53.1076 -53.1062
   -23.7847 -23.1868 -21.9891 -21.6723 -21.3784 -21.1933 -20.9040 -20.6502
   -15.2841 -14.2768 -12.7297 -11.6142 -10.9651  -9.9368  -9.2883  -9.1075
    -8.6836  -8.6068  -8.5897  -8.4804  -8.2534  -8.1058  -7.6005  -7.4598
    -7.4395  -7.4128  -7.4091  -7.0963  -7.0936  -7.0154  -7.0051  -6.9944
    -6.9681  -6.9643  -6.8684  -6.8535  -6.7526  -6.7501  -6.7189  -6.7178
    -6.6773  -6.5894  -6.5117  -6.5075  -6.4911  -6.4399  -6.3051  -6.3012
    -6.2960  -6.2953  -6.1335  -6.1295  -6.0826  -6.0515  -6.0505  -6.0101
    -5.9856  -5.9810  -5.8730  -5.8722  -5.8646  -5.8632  -5.8549  -5.8180
    -5.8174  -5.6141  -5.6069  -5.5233  -5.5035  -5.4674  -5.3395  -5.3347
    -5.3057  -5.1553  -4.9899  -4.9881  -4.9782  -4.8104  -4.8099  -4.6646
    -4.6633  -4.6095  -4.6063  -4.6028  -4.5795  -4.5628  -4.5391  -4.4969
    -4.4951  -4.4709  -4.4675  -4.4629  -4.4607  -4.4603  -4.4592  -4.3561
    -4.3384  -4.3345  -4.3193  -4.3160  -4.1868  -4.1473  -4.1428  -4.1356
    -4.0885  -4.0322  -3.9935  -3.9764  -3.9448  -3.9060  -3.8671  -3.8514
    -3.8267  -3.8118  -3.7979  -3.7906  -3.6043  -3.6006  -3.5964  -3.5903
    -3.5649  -3.5602  -3.5562  -3.5080  -3.5053  -3.4606  -3.4590  -3.4250
    -3.4139  -3.4042  -3.4010  -3.3277  -3.3226  -3.2566  -3.2520  -3.2339
    -3.2321  -3.1100  -3.1048  -3.1015  -3.0980  -3.0645  -3.0578  -3.0559
    -2.9295  -2.8592  -2.8551  -2.7757  -2.7255  -2.6646  -2.6290  -2.5011
    -2.4911  -2.4859  -2.4779  -2.4695  -2.3972  -2.3323  -2.3189  -2.3022
    -2.2608  -2.2582  -2.2554  -2.2079  -2.1961  -2.1333  -2.1214  -2.0870
    -2.0799  -1.9857  -1.9827  -1.9166  -1.9059  -1.8196  -1.7175  -1.7121
    -1.7111  -1.6973  -1.6958  -1.6849  -1.6839  -1.6703  -1.6136  -1.6105
    -1.6067  -1.5738  -1.5689  -1.5293  -1.4874  -1.4843  -1.4421  -1.4406
    -1.4043  -1.4029  -1.3794  -1.3443  -1.2164  -1.2121  -1.2096  -1.1830
    -1.1780  -1.1437  -1.1396  -1.0632  -1.0588  -1.0349  -1.0261  -1.0249
    -1.0233  -0.9413  -0.9406

     the Fermi energy is    -1.0998 ev

!    total energy              =   -7079.84291555 Ry
     Harris-Foulkes estimate   =   -7079.84291569 Ry
     estimated scf accuracy    <       0.00000024 Ry

     The total energy is the sum of the following terms:

     one-electron contribution =  -63363.79882444 Ry
     hartree contribution      =   31738.51362526 Ry
     xc contribution           =   -1905.19207129 Ry
     ewald contribution        =   26450.78777218 Ry
     smearing contrib. (-TS)   =      -0.15341727 Ry

     convergence has been achieved in  55 iterations

     Forces acting on atoms (Ry/au):


     negative rho (up, down):  5.663E+00 0.000E+00
     atom    1 type  1   force =    -0.00025128    0.00058040   -0.02053026
     atom    2 type  1   force =    -0.00055919   -0.00064428    0.01962379
     atom    3 type  1   force =    -0.00009658   -0.00007574   -0.01962258
     atom    4 type  1   force =    -0.00009099    0.00011166    0.01961445
     atom    5 type  1   force =     0.00001855   -0.00037875   -0.01998156
     atom    6 type  1   force =    -0.00006039   -0.00000196    0.01967783
     atom    7 type  1   force =     0.00037069   -0.00000970   -0.02004811
     atom    8 type  1   force =    -0.00014904    0.00005243    0.01994564
     atom    9 type  1   force =    -0.00047729   -0.00027595   -0.02029923
     atom   10 type  1   force =     0.00076180   -0.00060674    0.02094816
     atom   11 type  1   force =     0.00002820    0.00021529   -0.02000964
     atom   12 type  1   force =    -0.00007859   -0.00025555    0.01910144
     atom   13 type  1   force =     0.00003196   -0.00012138   -0.01988849
     atom   14 type  1   force =    -0.00137110   -0.00016970    0.01912340
     atom   15 type  1   force =     0.00016158    0.00011588   -0.01964120
     atom   16 type  1   force =     0.00009583    0.00033787    0.01945035
     atom   17 type  1   force =     0.00061120   -0.00019723   -0.02080663
     atom   18 type  1   force =    -0.00038830   -0.00027757    0.01950992
     atom   19 type  1   force =     0.00015488   -0.00004880   -0.02028489
     atom   20 type  1   force =     0.00016222   -0.00111022    0.01914626
     atom   21 type  1   force =     0.00020268    0.00005820   -0.01944864
     atom   22 type  1   force =    -0.00088040   -0.00206419    0.01614783
     atom   23 type  1   force =    -0.00012985    0.00033937   -0.01937191
     atom   24 type  1   force =    -0.00105356    0.00097374    0.02077011
     atom   25 type  1   force =     0.00037048   -0.00027664   -0.01941297
     atom   26 type  1   force =     0.00049173    0.00020632    0.01925528
     atom   27 type  1   force =    -0.00008701    0.00006666   -0.01977851
     atom   28 type  1   force =    -0.00011483    0.00019243    0.01945511
     atom   29 type  1   force =    -0.00017244    0.00041510   -0.02002710
     atom   30 type  1   force =     0.00194263    0.00010182    0.01923386
     atom   31 type  1   force =    -0.00028541   -0.00069672   -0.01923241
     atom   32 type  1   force =     0.00110095    0.00122541    0.02138056
     atom   33 type  2   force =     0.00762524    0.00164237    0.00490882
     atom   34 type  2   force =    -0.00024930    0.00085532    0.00029843
     atom   35 type  2   force =    -0.00035440   -0.00399022   -0.00069549
     atom   36 type  2   force =    -0.00824683    0.01800542   -0.01060016
     atom   37 type  2   force =     0.00336437    0.00137191   -0.00071990
     atom   38 type  2   force =     0.00098513    0.00419210   -0.00431696
     atom   39 type  2   force =    -0.01199319    0.01037500    0.00008822
     atom   40 type  2   force =    -0.00295967    0.00827237   -0.00182556
     atom   41 type  3   force =    -0.00152784   -0.00273447    0.00437427
     atom   42 type  3   force =     0.00673097   -0.00135906   -0.00120210
     atom   43 type  3   force =    -0.00108718   -0.00402904   -0.00370573
     atom   44 type  3   force =     0.00920656   -0.00479919   -0.00194350
     atom   45 type  3   force =     0.00443327   -0.00791790    0.00055031
     atom   46 type  3   force =     0.00242527   -0.00979182    0.00158030
     atom   47 type  4   force =     0.00169561   -0.00160564   -0.00067923
     atom   48 type  4   force =    -0.00616383    0.00508485    0.00338182
     atom   49 type  4   force =    -0.00132805   -0.00099957   -0.00061412
     atom   50 type  4   force =    -0.00167306    0.00070801    0.00014787
     atom   51 type  4   force =    -0.00374806   -0.00539489   -0.00022518
     atom   52 type  4   force =    -0.00133351   -0.00313912    0.00207389
     atom   53 type  4   force =     0.00288544    0.00280676    0.00027428
     atom   54 type  4   force =     0.00473493   -0.00934632    0.00844480
     atom   55 type  4   force =    -0.00008291    0.00152797    0.00671996
     atom   56 type  4   force =    -0.00359808    0.00248369   -0.00031487

     Total force =     0.119526     Total SCF correction =     0.001212
 !ASE

     Writing output data file calc.save
     Check: negative starting charge=   -5.910306
     NEW-OLD atomic charge density approx. for the potential
     Check: negative starting charge=   -5.910308

     negative rho (up, down):  5.663E+00 0.000E+00

     total cpu time spent up to now is   282774.1 secs

     per-process dynamical memory:   685.1 Mb

     Self-consistent Calculation

     iteration #  1     ecut=    40.42 Ry     beta=0.07
     Davidson diagonalization with overlap
     ethr =  1.26E-10,  avg # of iterations = 13.7

     negative rho (up, down):  5.663E+00 0.000E+00

     total cpu time spent up to now is   283378.2 secs

     total energy              =   -7079.84118545 Ry
     Harris-Foulkes estimate   =   -7079.84151435 Ry
     estimated scf accuracy    <       0.01169239 Ry

     iteration #  2     ecut=    40.42 Ry     beta=0.07
     Davidson diagonalization with overlap
     ethr =  1.97E-06,  avg # of iterations =  1.0

     negative rho (up, down):  5.664E+00 0.000E+00

     total cpu time spent up to now is   283565.3 secs

     total energy              =   -7079.83775397 Ry
     Harris-Foulkes estimate   =   -7079.84119231 Ry
     estimated scf accuracy    <       0.01022943 Ry

     iteration #  3     ecut=    40.42 Ry     beta=0.07
     Davidson diagonalization with overlap
     ethr =  1.72E-06,  avg # of iterations =  3.0

     negative rho (up, down):  5.664E+00 0.000E+00

     total cpu time spent up to now is   283778.4 secs

     total energy              =   -7079.83905183 Ry
     Harris-Foulkes estimate   =   -7079.83908591 Ry
     estimated scf accuracy    <       0.00082657 Ry

     iteration #  4     ecut=    40.42 Ry     beta=0.07
     Davidson diagonalization with overlap
     ethr =  1.39E-07,  avg # of iterations =  2.0

     negative rho (up, down):  5.664E+00 0.000E+00

     total cpu time spent up to now is   283974.1 secs

     total energy              =   -7079.83883745 Ry
     Harris-Foulkes estimate   =   -7079.83906493 Ry
     estimated scf accuracy    <       0.00066547 Ry

     iteration #  5     ecut=    40.42 Ry     beta=0.07
     Davidson diagonalization with overlap
     ethr =  1.12E-07,  avg # of iterations =  3.0

     negative rho (up, down):  5.664E+00 0.000E+00

     total cpu time spent up to now is   284183.8 secs

     total energy              =   -7079.83893144 Ry
     Harris-Foulkes estimate   =   -7079.83893461 Ry
     estimated scf accuracy    <       0.00017087 Ry

     iteration #  6     ecut=    40.42 Ry     beta=0.07
     Davidson diagonalization with overlap
     ethr =  2.88E-08,  avg # of iterations =  2.0

     negative rho (up, down):  5.663E+00 0.000E+00

     total cpu time spent up to now is   284384.1 secs

     total energy              =   -7079.83892017 Ry
     Harris-Foulkes estimate   =   -7079.83893989 Ry
     estimated scf accuracy    <       0.00012383 Ry

     iteration #  7     ecut=    40.42 Ry     beta=0.07
     Davidson diagonalization with overlap
     ethr =  2.08E-08,  avg # of iterations =  7.6

     negative rho (up, down):  5.663E+00 0.000E+00

     total cpu time spent up to now is   284614.9 secs

     total energy              =   -7079.83894188 Ry
     Harris-Foulkes estimate   =   -7079.83893855 Ry
     estimated scf accuracy    <       0.00014447 Ry

     iteration #  8     ecut=    40.42 Ry     beta=0.07
     Davidson diagonalization with overlap
     ethr =  2.08E-08,  avg # of iterations =  1.0

     negative rho (up, down):  5.663E+00 0.000E+00

     total cpu time spent up to now is   284803.5 secs

     total energy              =   -7079.83893568 Ry
     Harris-Foulkes estimate   =   -7079.83894265 Ry
     estimated scf accuracy    <       0.00011489 Ry

     iteration #  9     ecut=    40.42 Ry     beta=0.07
     Davidson diagonalization with overlap
     ethr =  1.93E-08,  avg # of iterations =  3.5

     negative rho (up, down):  5.663E+00 0.000E+00

     total cpu time spent up to now is   285011.3 secs

     total energy              =   -7079.83893919 Ry
     Harris-Foulkes estimate   =   -7079.83893896 Ry
     estimated scf accuracy    <       0.00003404 Ry

     iteration # 10     ecut=    40.42 Ry     beta=0.07
     Davidson diagonalization with overlap
     ethr =  5.73E-09,  avg # of iterations =  6.3

     negative rho (up, down):  5.663E+00 0.000E+00

     total cpu time spent up to now is   285226.5 secs

     total energy              =   -7079.83894855 Ry
     Harris-Foulkes estimate   =   -7079.83894387 Ry
     estimated scf accuracy    <       0.00004020 Ry

     iteration # 11     ecut=    40.42 Ry     beta=0.07
     Davidson diagonalization with overlap
     ethr =  5.73E-09,  avg # of iterations =  1.9

     negative rho (up, down):  5.663E+00 0.000E+00

     total cpu time spent up to now is   285417.2 secs

     total energy              =   -7079.83894626 Ry
     Harris-Foulkes estimate   =   -7079.83894940 Ry
     estimated scf accuracy    <       0.00006344 Ry

     iteration # 12     ecut=    40.42 Ry     beta=0.07
     Davidson diagonalization with overlap
     ethr =  5.73E-09,  avg # of iterations =  2.0

     negative rho (up, down):  5.663E+00 0.000E+00

     total cpu time spent up to now is   285607.1 secs

     total energy              =   -7079.83894544 Ry
     Harris-Foulkes estimate   =   -7079.83894773 Ry
     estimated scf accuracy    <       0.00002558 Ry

     iteration # 13     ecut=    40.42 Ry     beta=0.07
     Davidson diagonalization with overlap
     ethr =  4.31E-09,  avg # of iterations =  6.3

     negative rho (up, down):  5.663E+00 0.000E+00

     total cpu time spent up to now is   285835.7 secs

     total energy              =   -7079.83895405 Ry
     Harris-Foulkes estimate   =   -7079.83895163 Ry
     estimated scf accuracy    <       0.00004473 Ry

     iteration # 14     ecut=    40.42 Ry     beta=0.07
     Davidson diagonalization with overlap
     ethr =  4.31E-09,  avg # of iterations =  1.0

     negative rho (up, down):  5.663E+00 0.000E+00

     total cpu time spent up to now is   286024.8 secs

     total energy              =   -7079.83895713 Ry
     Harris-Foulkes estimate   =   -7079.83895410 Ry
     estimated scf accuracy    <       0.00004383 Ry

     iteration # 15     ecut=    40.42 Ry     beta=0.07
     Davidson diagonalization with overlap
     ethr =  4.31E-09,  avg # of iterations =  1.0

     negative rho (up, down):  5.663E+00 0.000E+00

     total cpu time spent up to now is   286218.9 secs

     total energy              =   -7079.83895722 Ry
     Harris-Foulkes estimate   =   -7079.83895720 Ry
     estimated scf accuracy    <       0.00005229 Ry

     iteration # 16     ecut=    40.42 Ry     beta=0.07
     Davidson diagonalization with overlap
     ethr =  4.31E-09,  avg # of iterations =  1.0

     negative rho (up, down):  5.663E+00 0.000E+00

     total cpu time spent up to now is   286408.6 secs

     total energy              =   -7079.83895923 Ry
     Harris-Foulkes estimate   =   -7079.83895738 Ry
     estimated scf accuracy    <       0.00003969 Ry

     iteration # 17     ecut=    40.42 Ry     beta=0.07
     Davidson diagonalization with overlap
     ethr =  4.31E-09,  avg # of iterations =  1.0

     negative rho (up, down):  5.663E+00 0.000E+00

     total cpu time spent up to now is   286596.4 secs

     total energy              =   -7079.83896229 Ry
     Harris-Foulkes estimate   =   -7079.83895928 Ry
     estimated scf accuracy    <       0.00003989 Ry

     iteration # 18     ecut=    40.42 Ry     beta=0.07
     Davidson diagonalization with overlap
     ethr =  4.31E-09,  avg # of iterations =  1.0

     negative rho (up, down):  5.663E+00 0.000E+00

     total cpu time spent up to now is   286782.9 secs

     total energy              =   -7079.83896291 Ry
     Harris-Foulkes estimate   =   -7079.83896273 Ry
     estimated scf accuracy    <       0.00006256 Ry

     iteration # 19     ecut=    40.42 Ry     beta=0.07
     Davidson diagonalization with overlap
     ethr =  4.31E-09,  avg # of iterations =  1.0

     negative rho (up, down):  5.663E+00 0.000E+00

     total cpu time spent up to now is   286968.0 secs

     total energy              =   -7079.83896443 Ry
     Harris-Foulkes estimate   =   -7079.83896297 Ry
     estimated scf accuracy    <       0.00005659 Ry

     iteration # 20     ecut=    40.42 Ry     beta=0.07
     Davidson diagonalization with overlap
     ethr =  4.31E-09,  avg # of iterations =  1.0

     negative rho (up, down):  5.663E+00 0.000E+00

     total cpu time spent up to now is   287155.3 secs

     total energy              =   -7079.83896343 Ry
     Harris-Foulkes estimate   =   -7079.83896447 Ry
     estimated scf accuracy    <       0.00006057 Ry

     iteration # 21     ecut=    40.42 Ry     beta=0.07
     Davidson diagonalization with overlap
     ethr =  4.31E-09,  avg # of iterations =  1.0

     negative rho (up, down):  5.663E+00 0.000E+00

     total cpu time spent up to now is   287370.4 secs

     total energy              =   -7079.83895635 Ry
     Harris-Foulkes estimate   =   -7079.83896360 Ry
     estimated scf accuracy    <       0.00004454 Ry

     iteration # 22     ecut=    40.42 Ry     beta=0.07
     Davidson diagonalization with overlap
     ethr =  4.31E-09,  avg # of iterations =  5.8

     negative rho (up, down):  5.663E+00 0.000E+00

     total cpu time spent up to now is   287622.5 secs

     total energy              =   -7079.83895879 Ry
     Harris-Foulkes estimate   =   -7079.83896479 Ry
     estimated scf accuracy    <       0.00004030 Ry

     iteration # 23     ecut=    40.42 Ry     beta=0.07
     Davidson diagonalization with overlap
     ethr =  4.31E-09,  avg # of iterations =  7.5

     negative rho (up, down):  5.663E+00 0.000E+00

     total cpu time spent up to now is   287859.1 secs

     total energy              =   -7079.83896350 Ry
     Harris-Foulkes estimate   =   -7079.83896307 Ry
     estimated scf accuracy    <       0.00001534 Ry

     iteration # 24     ecut=    40.42 Ry     beta=0.07
     Davidson diagonalization with overlap
     ethr =  2.58E-09,  avg # of iterations =  1.0

     negative rho (up, down):  5.663E+00 0.000E+00
