  python dir          : /gpfs/pace1/project/chbe-medford/medford-share/gits/frozen/ben_espresso_8_24_2017/espresso
  espresso dir        : /nv/hp22/amedford6/medford-shared/builds/espresso/5.1.r11289-pybeef/intel-16.0+mvapich2-2.2+mkl-11.3/espresso-5.1.r11289-pybeef/bin
  pseudo dir          : /gpfs/pace1/project/chbe-medford/medford-share/data/pseudos/SSSP_eff_PBE
  ase-espresso py git : GITVERSION



     Program PWSCF v.5.1rc2 starts on  6Apr2019 at 22:23:50 

     This program is part of the open-source Quantum ESPRESSO suite
     for quantum simulation of materials; please cite
         "P. Giannozzi et al., J. Phys.:Condens. Matter 21 395502 (2009);
          URL http://www.quantum-espresso.org", 
     in publications or presentations arising from this work. More details at
     http://www.quantum-espresso.org/quote

     Parallel version (MPI), running on    12 processors
     R & G space division:  proc/nbgrp/npool/nimage =      12
     Reading input from pw.inp
     Message from routine read_cards :
     DEPRECATED: no units specified in CELL_PARAMETERS card

     Current dimensions of program PWSCF are:
     Max number of different atomic species (ntypx) = 10
     Max number of k-points (npk) =  40000
     Max angular momentum in pseudopotentials (lmaxx) =  3

     IMPORTANT: XC functional enforced from input :
     Exchange-correlation      = PBE ( 1  4  3  4 0)
     Any further DFT definition will be discarded
     Please, verify this is what you really want


     Subspace diagonalization in iterative solution of the eigenvalue problem:
     a serial algorithm will be used

 
     Parallelization info
     --------------------
     sticks:   dense  smooth     PW     G-vecs:    dense   smooth      PW
     Min         706     346     91               151854    51870    7071
     Max         707     347     92               151869    51929    7082
     Sum        8479    4153   1099              1822335   622653   84925
 


     bravais-lattice index     =            0
     lattice parameter (alat)  =       1.8897  a.u.
     unit-cell volume          =   17941.7315 (a.u.)^3
     number of atoms/cell      =           56
     number of atomic types    =            4
     number of electrons       =       690.00
     number of Kohn-Sham states=          355
     kinetic-energy cutoff     =      40.4243  Ry
     charge density cutoff     =     330.7439  Ry
     convergence threshold     =      3.7E-07
     mixing beta               =       0.0750
     number of iterations used =            8  local-TF  mixing
     Exchange-correlation      = PBE ( 1  4  3  4 0)
     nstep                     =           50


     celldm(1)=   1.889726  celldm(2)=   0.000000  celldm(3)=   0.000000
     celldm(4)=   0.000000  celldm(5)=   0.000000  celldm(6)=   0.000000

     crystal axes: (cart. coord. in units of alat)
               a(1) = (  10.224481   0.000000   0.000000 )  
               a(2) = (  -5.112241   8.854660   0.000000 )  
               a(3) = (   0.000000   0.000000  29.366660 )  

     reciprocal axes: (cart. coord. in units 2 pi/alat)
               b(1) = (  0.097804  0.056467  0.000000 )  
               b(2) = (  0.000000  0.112935  0.000000 )  
               b(3) = (  0.000000  0.000000  0.034052 )  


     PseudoPot. # 1 for Cu read from file:
     /gpfs/pace1/project/chbe-medford/medford-share/data/pseudos/SSSP_eff_PBE/Cu.UPF
     MD5 check sum: 6e991ff952a84172a2a52a1c1e996048
     Pseudo is Ultrasoft + core correction, Zval = 19.0
     Generated by new atomic code, or converted to UPF format
     Using radial grid of  867 points,  6 beta functions with: 
                l(1) =   0
                l(2) =   0
                l(3) =   1
                l(4) =   1
                l(5) =   2
                l(6) =   2
     Q(r) pseudized with  8 coefficients,  rinner =    1.150   1.150   1.150
                                                       1.150   1.150

     PseudoPot. # 2 for O  read from file:
     /gpfs/pace1/project/chbe-medford/medford-share/data/pseudos/SSSP_eff_PBE/O.UPF
     MD5 check sum: 734c27235a0248c51dbae37a1fbe46ec
     Pseudo is Ultrasoft + core correction, Zval =  6.0
     Generated by new atomic code, or converted to UPF format
     Using radial grid of  737 points,  5 beta functions with: 
                l(1) =   0
                l(2) =   0
                l(3) =   1
                l(4) =   1
                l(5) =   2
     Q(r) pseudized with  8 coefficients,  rinner =    0.900   0.900   0.900
                                                       0.900   0.900

     PseudoPot. # 3 for C  read from file:
     /gpfs/pace1/project/chbe-medford/medford-share/data/pseudos/SSSP_eff_PBE/C.UPF
     MD5 check sum: d1aef80898a10debaa0f26306b886e00
     Pseudo is Ultrasoft + core correction, Zval =  4.0
     Generated by new atomic code, or converted to UPF format
     Using radial grid of  721 points,  4 beta functions with: 
                l(1) =   0
                l(2) =   0
                l(3) =   1
                l(4) =   1
     Q(r) pseudized with  8 coefficients,  rinner =    1.100   1.100   1.100


     PseudoPot. # 4 for  H read from file:
     /gpfs/pace1/project/chbe-medford/medford-share/data/pseudos/SSSP_eff_PBE/H.UPF
     MD5 check sum: 36633979392af7100e6f6632747262d3
     Pseudo is Ultrasoft, Zval =  1.0
     Generated using "atomic" code by A. Dal Corso  v.5.0.99 svn rev. 10869
     Using radial grid of  929 points,  2 beta functions with: 
                l(1) =   0
                l(2) =   0
     Q(r) pseudized with 0 coefficients 


     atomic species   valence    mass     pseudopotential
        Cu1           19.00    63.54600     Cu( 1.00)
        O1             6.00    15.99940     O ( 1.00)
        C1             4.00    12.01100     C ( 1.00)
        H1             1.00     1.00794      H( 1.00)

     No symmetry found



   Cartesian axes

     site n.     atom                  positions (alat units)
         1           Cu1 tau(   1) = (   0.0000000   0.0000000  10.0000000  )
         2           Cu1 tau(   2) = (   1.2780602   0.7378884  12.0870635  )
         3           Cu1 tau(   3) = (  -1.2780602   2.2136651  10.0000000  )
         4           Cu1 tau(   4) = (   0.0000000   2.9515535  12.0870635  )
         5           Cu1 tau(   5) = (  -2.5561203   4.4273302  10.0000000  )
         6           Cu1 tau(   6) = (  -1.2780602   5.1652186  12.0870635  )
         7           Cu1 tau(   7) = (  -3.8341805   6.6409954  10.0000000  )
         8           Cu1 tau(   8) = (  -2.5561203   7.3788837  12.0870635  )
         9           Cu1 tau(   9) = (   2.5561203   0.0000000  10.0000000  )
        10           Cu1 tau(  10) = (   3.8341805   0.7378884  12.0870635  )
        11           Cu1 tau(  11) = (   1.2780602   2.2136651  10.0000000  )
        12           Cu1 tau(  12) = (   2.5561203   2.9515535  12.0870635  )
        13           Cu1 tau(  13) = (   0.0000000   4.4273302  10.0000000  )
        14           Cu1 tau(  14) = (   1.2780602   5.1652186  12.0870635  )
        15           Cu1 tau(  15) = (  -1.2780602   6.6409954  10.0000000  )
        16           Cu1 tau(  16) = (   0.0000000   7.3788837  12.0870635  )
        17           Cu1 tau(  17) = (   5.1122406   0.0000000  10.0000000  )
        18           Cu1 tau(  18) = (   6.3903008   0.7378884  12.0870635  )
        19           Cu1 tau(  19) = (   3.8341805   2.2136651  10.0000000  )
        20           Cu1 tau(  20) = (   5.1122406   2.9515535  12.0870635  )
        21           Cu1 tau(  21) = (   2.5561203   4.4273302  10.0000000  )
        22           Cu1 tau(  22) = (   3.8341805   5.1652186  12.0870635  )
        23           Cu1 tau(  23) = (   1.2780602   6.6409954  10.0000000  )
        24           Cu1 tau(  24) = (   2.5561203   7.3788837  12.0870635  )
        25           Cu1 tau(  25) = (   7.6683609   0.0000000  10.0000000  )
        26           Cu1 tau(  26) = (   8.9464211   0.7378884  12.0870635  )
        27           Cu1 tau(  27) = (   6.3903008   2.2136651  10.0000000  )
        28           Cu1 tau(  28) = (   7.6683609   2.9515535  12.0870635  )
        29           Cu1 tau(  29) = (   5.1122406   4.4273302  10.0000000  )
        30           Cu1 tau(  30) = (   6.3903008   5.1652186  12.0870635  )
        31           Cu1 tau(  31) = (   3.8341805   6.6409954  10.0000000  )
        32           Cu1 tau(  32) = (   5.1122406   7.3788837  12.0870635  )
        33           O1  tau(  33) = (   4.1891000   2.2872590  18.9716303  )
        34           O1  tau(  34) = (   4.3452000   4.7867810  17.9570799  )
        35           O1  tau(  35) = (   2.0731000   0.6569676  18.7460788  )
        36           O1  tau(  36) = (   1.5808000   5.2049746  17.3652866  )
        37           O1  tau(  37) = (   2.6983000   1.1599736  15.3510783  )
        38           O1  tau(  38) = (   3.8340000   5.1650000  14.5870635  )
        39           O1  tau(  39) = (  -1.2069406   8.8166290  16.8472080  )
        40           O1  tau(  40) = (   2.8297000   6.8879924  15.6774993  )
        41           C1  tau(  41) = (   3.0478000   2.7754892  18.2478338  )
        42           C1  tau(  42) = (   3.5588000   3.8240275  17.2408314  )
        43           C1  tau(  43) = (   2.2833000   1.5768977  17.6717220  )
        44           C1  tau(  44) = (   2.4914000   4.6036065  16.4587505  )
        45           C1  tau(  45) = (   3.0561000   0.8125050  16.6116487  )
        46           C1  tau(  46) = (   3.0564000   5.6915640  15.5662721  )
        47           H1  tau(  47) = (   2.4217000   3.2585570  19.0080661  )
        48           H1  tau(  48) = (   4.2581000   3.3495597  16.5433109  )
        49           H1  tau(  49) = (   1.3059000   1.8766897  17.2802197  )
        50           H1  tau(  50) = (   1.9120000   3.9192121  15.8290187  )
        51           H1  tau(  51) = (   4.6346000   3.0561628  19.3666601  )
        52           H1  tau(  52) = (   3.7552000   5.2399983  18.5836969  )
        53           H1  tau(  53) = (  -3.6329406   8.8138329  18.4194216  )
        54           H1  tau(  54) = (   0.8433000   5.5672827  16.8451709  )
        55           H1  tau(  55) = (   3.2010000   0.6566879  14.6755388  )
        56           H1  tau(  56) = (   4.1943000   5.8578596  13.9934023  )

     number of k points=    10  Fermi-Dirac smearing, width (Ry)=  0.0073
                       cart. coord. in units 2pi/alat
        k(    1) = (   0.0000000   0.0000000   0.0000000), wk =   0.1250000
        k(    2) = (   0.0000000   0.0282337   0.0000000), wk =   0.2500000
        k(    3) = (   0.0000000  -0.0564674   0.0000000), wk =   0.1250000
        k(    4) = (   0.0244511   0.0423506   0.0000000), wk =   0.2500000
        k(    5) = (  -0.0244511   0.0141169   0.0000000), wk =   0.2500000
        k(    6) = (   0.0244511   0.0141169   0.0000000), wk =   0.2500000
        k(    7) = (   0.0489022  -0.0282337   0.0000000), wk =   0.1250000
        k(    8) = (  -0.0489022  -0.0282337   0.0000000), wk =   0.1250000
        k(    9) = (  -0.0244511   0.0423506   0.0000000), wk =   0.2500000
        k(   10) = (   0.0489022  -0.0000000   0.0000000), wk =   0.2500000

     Dense  grid:  1822335 G-vectors     FFT dimensions: ( 120, 120, 324)

     Smooth grid:   622653 G-vectors     FFT dimensions: (  80,  80, 225)

     Largest allocated arrays     est. size (Mb)     dimensions
        Kohn-Sham Wavefunctions        35.45 Mb     (    6545,  355)
        NL pseudopotentials            74.70 Mb     (    6545,  748)
        Each V/rho on FFT grid          5.93 Mb     (  388800)
        Each G-vector array             1.16 Mb     (  151858)
        G-vector shells                 0.38 Mb     (   49240)
     Largest temporary arrays     est. size (Mb)     dimensions
        Auxiliary wavefunctions       141.81 Mb     (    6545, 1420)
        Each subspace H/S matrix       30.77 Mb     (    1420, 1420)
        Each <psi_i|beta_j> matrix      4.05 Mb     (     748,  355)
        Arrays for rho mixing          47.46 Mb     (  388800,    8)

     Initial potential from superposition of free atoms
     Check: negative starting charge=   -0.009618

     starting charge  657.99959, renormalised to  690.00000

     negative rho (up, down):  1.009E-02 0.000E+00
     Starting wfc are  482 randomized atomic wfcs

     total cpu time spent up to now is      127.8 secs

     per-process dynamical memory:   587.9 Mb

     Self-consistent Calculation

     iteration #  1     ecut=    40.42 Ry     beta=0.07
     Davidson diagonalization with overlap
     ethr =  1.00E-02,  avg # of iterations =  5.1

     negative rho (up, down):  1.579E-01 0.000E+00

     total cpu time spent up to now is      599.0 secs

     total energy              =  -13337.79371686 Ry
     Harris-Foulkes estimate   =  -13352.40414071 Ry
     estimated scf accuracy    <    1808.50678931 Ry

     iteration #  2     ecut=    40.42 Ry     beta=0.07
     Davidson diagonalization with overlap
     ethr =  1.00E-02,  avg # of iterations =  1.0

     negative rho (up, down):  2.184E+00 0.000E+00

     total cpu time spent up to now is      824.1 secs

     total energy              =  -13180.78406907 Ry
     Harris-Foulkes estimate   =  -13338.42736437 Ry
     estimated scf accuracy    <    1646.86782747 Ry

     iteration #  3     ecut=    40.42 Ry     beta=0.07
     Davidson diagonalization with overlap
     ethr =  1.00E-02,  avg # of iterations = 12.2

     negative rho (up, down):  1.863E+00 0.000E+00

     total cpu time spent up to now is     1408.2 secs

     total energy              =  -13277.15193780 Ry
     Harris-Foulkes estimate   =  -13291.99140650 Ry
     estimated scf accuracy    <     111.19701566 Ry

     iteration #  4     ecut=    40.42 Ry     beta=0.07
     Davidson diagonalization with overlap
     ethr =  1.00E-02,  avg # of iterations =  1.0

     negative rho (up, down):  1.552E+00 0.000E+00

     total cpu time spent up to now is     1634.4 secs

     total energy              =  -13265.18873277 Ry
     Harris-Foulkes estimate   =  -13278.55052319 Ry
     estimated scf accuracy    <      86.15154109 Ry

     iteration #  5     ecut=    40.42 Ry     beta=0.07
     Davidson diagonalization with overlap
     ethr =  1.00E-02,  avg # of iterations =  2.0

     negative rho (up, down):  1.583E+00 0.000E+00

     total cpu time spent up to now is     1869.2 secs

     total energy              =  -13268.44921444 Ry
     Harris-Foulkes estimate   =  -13268.94907213 Ry
     estimated scf accuracy    <     132.11203469 Ry

     iteration #  6     ecut=    40.42 Ry     beta=0.07
     Davidson diagonalization with overlap
     ethr =  1.00E-02,  avg # of iterations =  1.4

     negative rho (up, down):  1.448E+00 0.000E+00

     total cpu time spent up to now is     2095.5 secs

     total energy              =  -13260.76629943 Ry
     Harris-Foulkes estimate   =  -13269.07183156 Ry
     estimated scf accuracy    <     114.78926892 Ry

     iteration #  7     ecut=    40.42 Ry     beta=0.07
     Davidson diagonalization with overlap
     ethr =  1.00E-02,  avg # of iterations =  2.0

     negative rho (up, down):  1.436E+00 0.000E+00

     total cpu time spent up to now is     2329.5 secs

     total energy              =  -13262.75577938 Ry
     Harris-Foulkes estimate   =  -13264.37004672 Ry
     estimated scf accuracy    <      81.29567110 Ry

     iteration #  8     ecut=    40.42 Ry     beta=0.07
     Davidson diagonalization with overlap
     ethr =  1.00E-02,  avg # of iterations =  2.5

     negative rho (up, down):  1.534E+00 0.000E+00

     total cpu time spent up to now is     2567.5 secs

     total energy              =  -13262.99573044 Ry
     Harris-Foulkes estimate   =  -13265.28791558 Ry
     estimated scf accuracy    <      49.39202214 Ry

     iteration #  9     ecut=    40.42 Ry     beta=0.07
     Davidson diagonalization with overlap
     ethr =  7.16E-03,  avg # of iterations =  1.4

     negative rho (up, down):  1.528E+00 0.000E+00

     total cpu time spent up to now is     2796.1 secs

     total energy              =  -13263.46466524 Ry
     Harris-Foulkes estimate   =  -13263.86387732 Ry
     estimated scf accuracy    <      21.27927957 Ry

     iteration # 10     ecut=    40.42 Ry     beta=0.07
     Davidson diagonalization with overlap
     ethr =  3.08E-03,  avg # of iterations =  1.0

     negative rho (up, down):  1.370E+00 0.000E+00

     total cpu time spent up to now is     3020.0 secs

     total energy              =  -13262.15670071 Ry
     Harris-Foulkes estimate   =  -13263.56488195 Ry
     estimated scf accuracy    <      17.64200876 Ry

     iteration # 11     ecut=    40.42 Ry     beta=0.07
     Davidson diagonalization with overlap
     ethr =  2.56E-03,  avg # of iterations =  3.2

     negative rho (up, down):  1.341E+00 0.000E+00

     total cpu time spent up to now is     3261.5 secs

     total energy              =  -13261.97212110 Ry
     Harris-Foulkes estimate   =  -13262.85870876 Ry
     estimated scf accuracy    <      37.49026402 Ry

     iteration # 12     ecut=    40.42 Ry     beta=0.07
     Davidson diagonalization with overlap
     ethr =  2.56E-03,  avg # of iterations =  1.5

     negative rho (up, down):  1.413E+00 0.000E+00

     total cpu time spent up to now is     3490.0 secs

     total energy              =  -13259.75649562 Ry
     Harris-Foulkes estimate   =  -13262.09439592 Ry
     estimated scf accuracy    <      30.93592833 Ry

     iteration # 13     ecut=    40.42 Ry     beta=0.07
     Davidson diagonalization with overlap
     ethr =  2.56E-03,  avg # of iterations =  3.4

     negative rho (up, down):  1.411E+00 0.000E+00

     total cpu time spent up to now is     3737.5 secs

     total energy              =  -13262.30714396 Ry
     Harris-Foulkes estimate   =  -13262.02279153 Ry
     estimated scf accuracy    <       9.81448674 Ry

     iteration # 14     ecut=    40.42 Ry     beta=0.07
     Davidson diagonalization with overlap
     ethr =  1.42E-03,  avg # of iterations =  3.7

     negative rho (up, down):  1.415E+00 0.000E+00

     total cpu time spent up to now is     3984.8 secs

     total energy              =  -13261.31875978 Ry
     Harris-Foulkes estimate   =  -13262.58675285 Ry
     estimated scf accuracy    <      12.44963455 Ry

     iteration # 15     ecut=    40.42 Ry     beta=0.07
     Davidson diagonalization with overlap
     ethr =  1.42E-03,  avg # of iterations =  3.0

     negative rho (up, down):  1.413E+00 0.000E+00

     total cpu time spent up to now is     4235.2 secs

     total energy              =  -13262.16163440 Ry
     Harris-Foulkes estimate   =  -13262.10258898 Ry
     estimated scf accuracy    <      10.45453156 Ry

     iteration # 16     ecut=    40.42 Ry     beta=0.07
     Davidson diagonalization with overlap
     ethr =  1.42E-03,  avg # of iterations =  1.0

     negative rho (up, down):  1.047E+00 0.000E+00

     total cpu time spent up to now is     4457.5 secs

     total energy              =  -13259.92040389 Ry
     Harris-Foulkes estimate   =  -13262.36530574 Ry
     estimated scf accuracy    <      20.65485931 Ry

     iteration # 17     ecut=    40.42 Ry     beta=0.07
     Davidson diagonalization with overlap
     ethr =  1.42E-03,  avg # of iterations =  2.8

     negative rho (up, down):  8.271E-01 0.000E+00

     total cpu time spent up to now is     4704.9 secs

     total energy              =  -13260.17644757 Ry
     Harris-Foulkes estimate   =  -13260.74010272 Ry
     estimated scf accuracy    <       7.66783139 Ry

     iteration # 18     ecut=    40.42 Ry     beta=0.07
     Davidson diagonalization with overlap
     ethr =  1.11E-03,  avg # of iterations =  2.8

     negative rho (up, down):  9.127E-01 0.000E+00

     total cpu time spent up to now is     4947.0 secs

     total energy              =  -13260.17831775 Ry
     Harris-Foulkes estimate   =  -13260.60048327 Ry
     estimated scf accuracy    <      16.85506199 Ry

     iteration # 19     ecut=    40.42 Ry     beta=0.07
     Davidson diagonalization with overlap
     ethr =  1.11E-03,  avg # of iterations =  1.0

     negative rho (up, down):  8.591E-01 0.000E+00

     total cpu time spent up to now is     5172.6 secs

     total energy              =  -13259.83385597 Ry
     Harris-Foulkes estimate   =  -13260.37883456 Ry
     estimated scf accuracy    <       6.31158742 Ry

     iteration # 20     ecut=    40.42 Ry     beta=0.07
     Davidson diagonalization with overlap
     ethr =  9.15E-04,  avg # of iterations =  2.4

     negative rho (up, down):  6.555E-01 0.000E+00

     total cpu time spent up to now is     5409.2 secs

     total energy              =  -13259.75410564 Ry
     Harris-Foulkes estimate   =  -13260.15031989 Ry
     estimated scf accuracy    <       3.08312507 Ry

     iteration # 21     ecut=    40.42 Ry     beta=0.07
     Davidson diagonalization with overlap
     ethr =  4.47E-04,  avg # of iterations =  4.6

     negative rho (up, down):  6.680E-01 0.000E+00

     total cpu time spent up to now is     5670.6 secs

     total energy              =  -13259.91301797 Ry
     Harris-Foulkes estimate   =  -13260.08453824 Ry
     estimated scf accuracy    <       9.16265895 Ry

     iteration # 22     ecut=    40.42 Ry     beta=0.07
     Davidson diagonalization with overlap
     ethr =  4.47E-04,  avg # of iterations =  1.3

     negative rho (up, down):  7.453E-01 0.000E+00

     total cpu time spent up to now is     5896.9 secs

     total energy              =  -13259.87211621 Ry
     Harris-Foulkes estimate   =  -13259.99993851 Ry
     estimated scf accuracy    <       5.41746313 Ry

     iteration # 23     ecut=    40.42 Ry     beta=0.07
     Davidson diagonalization with overlap
     ethr =  4.47E-04,  avg # of iterations =  5.3

     negative rho (up, down):  7.197E-01 0.000E+00

     total cpu time spent up to now is     6161.3 secs

     total energy              =  -13259.94194993 Ry
     Harris-Foulkes estimate   =  -13259.95137027 Ry
     estimated scf accuracy    <       3.04645862 Ry

     iteration # 24     ecut=    40.42 Ry     beta=0.07
     Davidson diagonalization with overlap
     ethr =  4.42E-04,  avg # of iterations =  1.7

     negative rho (up, down):  6.328E-01 0.000E+00

     total cpu time spent up to now is     6390.2 secs

     total energy              =  -13259.72867143 Ry
     Harris-Foulkes estimate   =  -13260.00576092 Ry
     estimated scf accuracy    <       2.72068139 Ry

     iteration # 25     ecut=    40.42 Ry     beta=0.07
     Davidson diagonalization with overlap
     ethr =  3.94E-04,  avg # of iterations =  2.0

     negative rho (up, down):  6.202E-01 0.000E+00

     total cpu time spent up to now is     6626.1 secs

     total energy              =  -13259.86868733 Ry
     Harris-Foulkes estimate   =  -13259.82760075 Ry
     estimated scf accuracy    <       4.35649476 Ry

     iteration # 26     ecut=    40.42 Ry     beta=0.07
     Davidson diagonalization with overlap
     ethr =  3.94E-04,  avg # of iterations =  2.0

     negative rho (up, down):  5.929E-01 0.000E+00

     total cpu time spent up to now is     6860.2 secs

     total energy              =  -13260.04379841 Ry
     Harris-Foulkes estimate   =  -13259.90633318 Ry
     estimated scf accuracy    <       5.44271667 Ry

     iteration # 27     ecut=    40.42 Ry     beta=0.07
     Davidson diagonalization with overlap
     ethr =  3.94E-04,  avg # of iterations =  6.0

     negative rho (up, down):  6.236E-01 0.000E+00

     total cpu time spent up to now is     7132.9 secs

     total energy              =  -13260.18767844 Ry
     Harris-Foulkes estimate   =  -13260.24902506 Ry
     estimated scf accuracy    <      12.87432244 Ry

     iteration # 28     ecut=    40.42 Ry     beta=0.07
     Davidson diagonalization with overlap
     ethr =  3.94E-04,  avg # of iterations =  2.0

     negative rho (up, down):  6.535E-01 0.000E+00

     total cpu time spent up to now is     7367.3 secs

     total energy              =  -13260.20941867 Ry
     Harris-Foulkes estimate   =  -13260.27427707 Ry
     estimated scf accuracy    <       7.23641507 Ry

     iteration # 29     ecut=    40.42 Ry     beta=0.07
     Davidson diagonalization with overlap
     ethr =  3.94E-04,  avg # of iterations =  1.0

     negative rho (up, down):  5.515E-01 0.000E+00

     total cpu time spent up to now is     7598.5 secs

     total energy              =  -13259.84610276 Ry
     Harris-Foulkes estimate   =  -13260.22544731 Ry
     estimated scf accuracy    <       6.38806188 Ry

     iteration # 30     ecut=    40.42 Ry     beta=0.07
     Davidson diagonalization with overlap
     ethr =  3.94E-04,  avg # of iterations =  4.9

     negative rho (up, down):  5.522E-01 0.000E+00

     total cpu time spent up to now is     7862.1 secs

     total energy              =  -13259.91615632 Ry
     Harris-Foulkes estimate   =  -13259.91289627 Ry
     estimated scf accuracy    <       7.20658019 Ry

     iteration # 31     ecut=    40.42 Ry     beta=0.07
     Davidson diagonalization with overlap
     ethr =  3.94E-04,  avg # of iterations =  1.0

     negative rho (up, down):  5.686E-01 0.000E+00

     total cpu time spent up to now is     8085.4 secs

     total energy              =  -13259.99378259 Ry
     Harris-Foulkes estimate   =  -13259.91805229 Ry
     estimated scf accuracy    <       7.05090953 Ry

     iteration # 32     ecut=    40.42 Ry     beta=0.07
     Davidson diagonalization with overlap
     ethr =  3.94E-04,  avg # of iterations =  1.0

     negative rho (up, down):  6.493E-01 0.000E+00

     total cpu time spent up to now is     8309.2 secs

     total energy              =  -13260.06428609 Ry
     Harris-Foulkes estimate   =  -13260.00106484 Ry
     estimated scf accuracy    <       8.49794955 Ry

     iteration # 33     ecut=    40.42 Ry     beta=0.07
     Davidson diagonalization with overlap
     ethr =  3.94E-04,  avg # of iterations =  2.0

     negative rho (up, down):  5.841E-01 0.000E+00

     total cpu time spent up to now is     8545.1 secs

     total energy              =  -13259.33448329 Ry
     Harris-Foulkes estimate   =  -13260.12165351 Ry
     estimated scf accuracy    <       6.82707159 Ry

     iteration # 34     ecut=    40.42 Ry     beta=0.07
     Davidson diagonalization with overlap
     ethr =  3.94E-04,  avg # of iterations =  3.8

     negative rho (up, down):  5.146E-01 0.000E+00

     total cpu time spent up to now is     8808.6 secs

     total energy              =  -13259.32811142 Ry
     Harris-Foulkes estimate   =  -13259.77755877 Ry
     estimated scf accuracy    <       3.69825124 Ry

     iteration # 35     ecut=    40.42 Ry     beta=0.07
     Davidson diagonalization with overlap
     ethr =  3.94E-04,  avg # of iterations =  4.2

     negative rho (up, down):  5.053E-01 0.000E+00

     total cpu time spent up to now is     9068.6 secs

     total energy              =  -13259.76597122 Ry
     Harris-Foulkes estimate   =  -13259.77807184 Ry
     estimated scf accuracy    <      10.55751811 Ry

     iteration # 36     ecut=    40.42 Ry     beta=0.07
     Davidson diagonalization with overlap
     ethr =  3.94E-04,  avg # of iterations =  1.0

     negative rho (up, down):  4.733E-01 0.000E+00

     total cpu time spent up to now is     9291.9 secs

     total energy              =  -13259.57837143 Ry
     Harris-Foulkes estimate   =  -13259.77227886 Ry
     estimated scf accuracy    <      10.19314617 Ry

     iteration # 37     ecut=    40.42 Ry     beta=0.07
     Davidson diagonalization with overlap
     ethr =  3.94E-04,  avg # of iterations =  1.0

     negative rho (up, down):  4.827E-01 0.000E+00

     total cpu time spent up to now is     9514.8 secs

     total energy              =  -13259.46754972 Ry
     Harris-Foulkes estimate   =  -13259.59934004 Ry
     estimated scf accuracy    <       7.82718238 Ry

     iteration # 38     ecut=    40.42 Ry     beta=0.07
     Davidson diagonalization with overlap
     ethr =  3.94E-04,  avg # of iterations =  2.2

     negative rho (up, down):  4.336E-01 0.000E+00

     total cpu time spent up to now is     9746.1 secs

     total energy              =  -13259.09305290 Ry
     Harris-Foulkes estimate   =  -13259.51295735 Ry
     estimated scf accuracy    <       4.21546021 Ry

     iteration # 39     ecut=    40.42 Ry     beta=0.07
     Davidson diagonalization with overlap
     ethr =  3.94E-04,  avg # of iterations =  3.1

     negative rho (up, down):  4.189E-01 0.000E+00

     total cpu time spent up to now is     9987.5 secs

     total energy              =  -13259.39763121 Ry
     Harris-Foulkes estimate   =  -13259.39235509 Ry
     estimated scf accuracy    <       3.75092988 Ry

     iteration # 40     ecut=    40.42 Ry     beta=0.07
     Davidson diagonalization with overlap
     ethr =  3.94E-04,  avg # of iterations =  1.0

     negative rho (up, down):  4.279E-01 0.000E+00

     total cpu time spent up to now is    10209.0 secs

     total energy              =  -13259.41414823 Ry
     Harris-Foulkes estimate   =  -13259.40525886 Ry
     estimated scf accuracy    <       4.11668590 Ry

     iteration # 41     ecut=    40.42 Ry     beta=0.07
     Davidson diagonalization with overlap
     ethr =  3.94E-04,  avg # of iterations =  1.0

     negative rho (up, down):  4.412E-01 0.000E+00

     total cpu time spent up to now is    10430.7 secs

     total energy              =  -13259.33984238 Ry
     Harris-Foulkes estimate   =  -13259.41753064 Ry
     estimated scf accuracy    <       4.42178027 Ry

     iteration # 42     ecut=    40.42 Ry     beta=0.07
     Davidson diagonalization with overlap
     ethr =  3.94E-04,  avg # of iterations =  1.0

     negative rho (up, down):  4.406E-01 0.000E+00

     total cpu time spent up to now is    10652.2 secs

     total energy              =  -13259.33598003 Ry
     Harris-Foulkes estimate   =  -13259.37145234 Ry
     estimated scf accuracy    <       1.37910497 Ry

     iteration # 43     ecut=    40.42 Ry     beta=0.07
     Davidson diagonalization with overlap
     ethr =  2.00E-04,  avg # of iterations =  2.0

     negative rho (up, down):  4.316E-01 0.000E+00

     total cpu time spent up to now is    10880.8 secs

     total energy              =  -13259.29600744 Ry
     Harris-Foulkes estimate   =  -13259.34741394 Ry
     estimated scf accuracy    <       1.04917123 Ry

     iteration # 44     ecut=    40.42 Ry     beta=0.07
     Davidson diagonalization with overlap
     ethr =  1.52E-04,  avg # of iterations =  3.4

     negative rho (up, down):  3.249E-01 0.000E+00

     total cpu time spent up to now is    11124.6 secs

     total energy              =  -13259.01313610 Ry
     Harris-Foulkes estimate   =  -13259.40768847 Ry
     estimated scf accuracy    <       3.89503753 Ry

     iteration # 45     ecut=    40.42 Ry     beta=0.07
     Davidson diagonalization with overlap
     ethr =  1.52E-04,  avg # of iterations =  3.7

     negative rho (up, down):  2.858E-01 0.000E+00

     total cpu time spent up to now is    11377.7 secs

     total energy              =  -13259.20528878 Ry
     Harris-Foulkes estimate   =  -13259.22854530 Ry
     estimated scf accuracy    <       0.61443901 Ry

     iteration # 46     ecut=    40.42 Ry     beta=0.07
     Davidson diagonalization with overlap
     ethr =  8.90E-05,  avg # of iterations =  2.0

     negative rho (up, down):  2.800E-01 0.000E+00

     total cpu time spent up to now is    11610.8 secs

     total energy              =  -13259.19851571 Ry
     Harris-Foulkes estimate   =  -13259.21535758 Ry
     estimated scf accuracy    <       0.63870936 Ry

     iteration # 47     ecut=    40.42 Ry     beta=0.07
     Davidson diagonalization with overlap
     ethr =  8.90E-05,  avg # of iterations =  1.1

     negative rho (up, down):  2.493E-01 0.000E+00

     total cpu time spent up to now is    11832.0 secs

     total energy              =  -13259.17568513 Ry
     Harris-Foulkes estimate   =  -13259.20223256 Ry
     estimated scf accuracy    <       0.59774344 Ry

     iteration # 48     ecut=    40.42 Ry     beta=0.07
     Davidson diagonalization with overlap
     ethr =  8.66E-05,  avg # of iterations =  2.0

     negative rho (up, down):  1.420E-01 0.000E+00

     total cpu time spent up to now is    12062.8 secs

     total energy              =  -13259.09583428 Ry
     Harris-Foulkes estimate   =  -13259.18233855 Ry
     estimated scf accuracy    <       0.53221170 Ry

     iteration # 49     ecut=    40.42 Ry     beta=0.07
     Davidson diagonalization with overlap
     ethr =  7.71E-05,  avg # of iterations =  2.8

     negative rho (up, down):  1.433E-01 0.000E+00

     total cpu time spent up to now is    12307.6 secs

     total energy              =  -13259.13539772 Ry
     Harris-Foulkes estimate   =  -13259.14705704 Ry
     estimated scf accuracy    <       2.10855002 Ry

     iteration # 50     ecut=    40.42 Ry     beta=0.07
     Davidson diagonalization with overlap
     ethr =  7.71E-05,  avg # of iterations =  2.0

     negative rho (up, down):  1.432E-01 0.000E+00

     total cpu time spent up to now is    12535.8 secs

     total energy              =  -13259.15255303 Ry
     Harris-Foulkes estimate   =  -13259.13941612 Ry
     estimated scf accuracy    <       1.62397626 Ry

     iteration # 51     ecut=    40.42 Ry     beta=0.07
     Davidson diagonalization with overlap
     ethr =  7.71E-05,  avg # of iterations =  2.0

     negative rho (up, down):  1.526E-01 0.000E+00

     total cpu time spent up to now is    12766.0 secs

     total energy              =  -13259.16020026 Ry
     Harris-Foulkes estimate   =  -13259.16486146 Ry
     estimated scf accuracy    <       2.23498180 Ry

     iteration # 52     ecut=    40.42 Ry     beta=0.07
     Davidson diagonalization with overlap
     ethr =  7.71E-05,  avg # of iterations =  1.0

     negative rho (up, down):  1.252E-01 0.000E+00

     total cpu time spent up to now is    12987.8 secs

     total energy              =  -13259.10678366 Ry
     Harris-Foulkes estimate   =  -13259.16576925 Ry
     estimated scf accuracy    <       2.16491002 Ry

     iteration # 53     ecut=    40.42 Ry     beta=0.07
     Davidson diagonalization with overlap
     ethr =  7.71E-05,  avg # of iterations =  2.0

     negative rho (up, down):  1.535E-01 0.000E+00

     total cpu time spent up to now is    13218.5 secs

     total energy              =  -13259.15534267 Ry
     Harris-Foulkes estimate   =  -13259.14194773 Ry
     estimated scf accuracy    <       2.52463760 Ry

     iteration # 54     ecut=    40.42 Ry     beta=0.07
     Davidson diagonalization with overlap
     ethr =  7.71E-05,  avg # of iterations =  2.0

     negative rho (up, down):  8.159E-02 0.000E+00

     total cpu time spent up to now is    13447.4 secs

     total energy              =  -13259.16238480 Ry
     Harris-Foulkes estimate   =  -13259.16023837 Ry
     estimated scf accuracy    <       2.42999053 Ry

     iteration # 55     ecut=    40.42 Ry     beta=0.07
     Davidson diagonalization with overlap
     ethr =  7.71E-05,  avg # of iterations =  2.0

     negative rho (up, down):  1.264E-01 0.000E+00

     total cpu time spent up to now is    13678.3 secs

     total energy              =  -13259.06515338 Ry
     Harris-Foulkes estimate   =  -13259.18057243 Ry
     estimated scf accuracy    <       3.84935584 Ry

     iteration # 56     ecut=    40.42 Ry     beta=0.07
     Davidson diagonalization with overlap
     ethr =  7.71E-05,  avg # of iterations =  2.0

     negative rho (up, down):  1.456E-01 0.000E+00

     total cpu time spent up to now is    13909.5 secs

     total energy              =  -13259.06335864 Ry
     Harris-Foulkes estimate   =  -13259.09105431 Ry
     estimated scf accuracy    <       0.93817155 Ry

     iteration # 57     ecut=    40.42 Ry     beta=0.07
     Davidson diagonalization with overlap
     ethr =  7.71E-05,  avg # of iterations =  2.3

     negative rho (up, down):  1.496E-01 0.000E+00

     total cpu time spent up to now is    14145.1 secs

     total energy              =  -13259.05652505 Ry
     Harris-Foulkes estimate   =  -13259.07955735 Ry
     estimated scf accuracy    <       0.30472795 Ry

     iteration # 58     ecut=    40.42 Ry     beta=0.07
     Davidson diagonalization with overlap
     ethr =  4.42E-05,  avg # of iterations =  2.2

     negative rho (up, down):  2.016E-01 0.000E+00

     total cpu time spent up to now is    14377.4 secs

     total energy              =  -13259.03787530 Ry
     Harris-Foulkes estimate   =  -13259.06670486 Ry
     estimated scf accuracy    <       0.64391238 Ry

     iteration # 59     ecut=    40.42 Ry     beta=0.07
     Davidson diagonalization with overlap
     ethr =  4.42E-05,  avg # of iterations =  2.0

     negative rho (up, down):  2.773E-01 0.000E+00

     total cpu time spent up to now is    14607.8 secs

     total energy              =  -13259.03838885 Ry
     Harris-Foulkes estimate   =  -13259.05374103 Ry
     estimated scf accuracy    <       0.25075001 Ry

     iteration # 60     ecut=    40.42 Ry     beta=0.07
     Davidson diagonalization with overlap
     ethr =  3.63E-05,  avg # of iterations =  2.0

     negative rho (up, down):  2.718E-01 0.000E+00

     total cpu time spent up to now is    14839.5 secs

     total energy              =  -13259.04270238 Ry
     Harris-Foulkes estimate   =  -13259.04449174 Ry
     estimated scf accuracy    <       0.21742506 Ry

     iteration # 61     ecut=    40.42 Ry     beta=0.07
     Davidson diagonalization with overlap
     ethr =  3.15E-05,  avg # of iterations =  1.0

     negative rho (up, down):  2.278E-01 0.000E+00

     total cpu time spent up to now is    15059.6 secs

     total energy              =  -13259.03949142 Ry
     Harris-Foulkes estimate   =  -13259.04351948 Ry
     estimated scf accuracy    <       0.21386919 Ry

     iteration # 62     ecut=    40.42 Ry     beta=0.07
     Davidson diagonalization with overlap
     ethr =  3.10E-05,  avg # of iterations =  1.0

     negative rho (up, down):  1.583E-01 0.000E+00

     total cpu time spent up to now is    15279.9 secs

     total energy              =  -13259.03042848 Ry
     Harris-Foulkes estimate   =  -13259.04030609 Ry
     estimated scf accuracy    <       0.21151728 Ry

     iteration # 63     ecut=    40.42 Ry     beta=0.07
     Davidson diagonalization with overlap
     ethr =  3.07E-05,  avg # of iterations =  1.0

     negative rho (up, down):  8.095E-02 0.000E+00

     total cpu time spent up to now is    15502.3 secs

     total energy              =  -13259.00820982 Ry
     Harris-Foulkes estimate   =  -13259.03114943 Ry
     estimated scf accuracy    <       0.19956418 Ry

     iteration # 64     ecut=    40.42 Ry     beta=0.07
     Davidson diagonalization with overlap
     ethr =  2.89E-05,  avg # of iterations =  2.0

     negative rho (up, down):  2.283E-01 0.000E+00

     total cpu time spent up to now is    15733.8 secs

     total energy              =  -13258.98464631 Ry
     Harris-Foulkes estimate   =  -13259.01349200 Ry
     estimated scf accuracy    <       0.17621967 Ry

     iteration # 65     ecut=    40.42 Ry     beta=0.07
     Davidson diagonalization with overlap
     ethr =  2.55E-05,  avg # of iterations =  5.2

     negative rho (up, down):  2.432E-01 0.000E+00

     total cpu time spent up to now is    16005.6 secs

     total energy              =  -13258.98090054 Ry
     Harris-Foulkes estimate   =  -13259.00031698 Ry
     estimated scf accuracy    <       0.14843268 Ry

     iteration # 66     ecut=    40.42 Ry     beta=0.07
     Davidson diagonalization with overlap
     ethr =  2.15E-05,  avg # of iterations =  2.0

     negative rho (up, down):  2.034E-01 0.000E+00

     total cpu time spent up to now is    16239.1 secs

     total energy              =  -13258.95255344 Ry
     Harris-Foulkes estimate   =  -13258.98332048 Ry
     estimated scf accuracy    <       0.10817903 Ry

     iteration # 67     ecut=    40.42 Ry     beta=0.07
     Davidson diagonalization with overlap
     ethr =  1.57E-05,  avg # of iterations =  4.1

     negative rho (up, down):  2.332E-01 0.000E+00

     total cpu time spent up to now is    16498.3 secs

     total energy              =  -13258.95069456 Ry
     Harris-Foulkes estimate   =  -13258.95906560 Ry
     estimated scf accuracy    <       0.07684404 Ry

     iteration # 68     ecut=    40.42 Ry     beta=0.07
     Davidson diagonalization with overlap
     ethr =  1.11E-05,  avg # of iterations =  3.0

     negative rho (up, down):  2.496E-01 0.000E+00

     total cpu time spent up to now is    16741.5 secs

     total energy              =  -13258.95467892 Ry
     Harris-Foulkes estimate   =  -13258.95415424 Ry
     estimated scf accuracy    <       0.05263360 Ry

     iteration # 69     ecut=    40.42 Ry     beta=0.07
     Davidson diagonalization with overlap
     ethr =  7.63E-06,  avg # of iterations =  1.0

     negative rho (up, down):  2.526E-01 0.000E+00

     total cpu time spent up to now is    16965.3 secs

     total energy              =  -13258.95445540 Ry
     Harris-Foulkes estimate   =  -13258.95520311 Ry
     estimated scf accuracy    <       0.05106581 Ry

     iteration # 70     ecut=    40.42 Ry     beta=0.07
     Davidson diagonalization with overlap
     ethr =  7.40E-06,  avg # of iterations =  2.0

     negative rho (up, down):  1.672E-01 0.000E+00

     total cpu time spent up to now is    17197.9 secs

     total energy              =  -13258.94535299 Ry
     Harris-Foulkes estimate   =  -13258.95507519 Ry
     estimated scf accuracy    <       0.04707927 Ry

     iteration # 71     ecut=    40.42 Ry     beta=0.07
     Davidson diagonalization with overlap
     ethr =  6.82E-06,  avg # of iterations =  2.0

     negative rho (up, down):  1.076E-01 0.000E+00

     total cpu time spent up to now is    17438.0 secs

     total energy              =  -13258.93757672 Ry
     Harris-Foulkes estimate   =  -13258.94666731 Ry
     estimated scf accuracy    <       0.04104042 Ry

     iteration # 72     ecut=    40.42 Ry     beta=0.07
     Davidson diagonalization with overlap
     ethr =  5.95E-06,  avg # of iterations =  2.7

     negative rho (up, down):  9.963E-02 0.000E+00

     total cpu time spent up to now is    17678.1 secs

     total energy              =  -13258.93598977 Ry
     Harris-Foulkes estimate   =  -13258.93845248 Ry
     estimated scf accuracy    <       0.03076863 Ry

     iteration # 73     ecut=    40.42 Ry     beta=0.07
     Davidson diagonalization with overlap
     ethr =  4.46E-06,  avg # of iterations =  2.5

     negative rho (up, down):  8.795E-02 0.000E+00

     total cpu time spent up to now is    17914.3 secs

     total energy              =  -13258.93443665 Ry
     Harris-Foulkes estimate   =  -13258.93652556 Ry
     estimated scf accuracy    <       0.02869668 Ry

     iteration # 74     ecut=    40.42 Ry     beta=0.07
     Davidson diagonalization with overlap
     ethr =  4.16E-06,  avg # of iterations =  1.2

     negative rho (up, down):  9.753E-02 0.000E+00

     total cpu time spent up to now is    18136.6 secs

     total energy              =  -13258.93231863 Ry
     Harris-Foulkes estimate   =  -13258.93472126 Ry
     estimated scf accuracy    <       0.02493350 Ry

     iteration # 75     ecut=    40.42 Ry     beta=0.07
     Davidson diagonalization with overlap
     ethr =  3.61E-06,  avg # of iterations =  1.5

     negative rho (up, down):  1.244E-01 0.000E+00

     total cpu time spent up to now is    18362.5 secs

     total energy              =  -13258.93160731 Ry
     Harris-Foulkes estimate   =  -13258.93262156 Ry
     estimated scf accuracy    <       0.02251834 Ry

     iteration # 76     ecut=    40.42 Ry     beta=0.07
     Davidson diagonalization with overlap
     ethr =  3.26E-06,  avg # of iterations =  1.4

     negative rho (up, down):  1.319E-01 0.000E+00

     total cpu time spent up to now is    18587.6 secs

     total energy              =  -13258.92881370 Ry
     Harris-Foulkes estimate   =  -13258.93179943 Ry
     estimated scf accuracy    <       0.02022111 Ry

     iteration # 77     ecut=    40.42 Ry     beta=0.07
     Davidson diagonalization with overlap
     ethr =  2.93E-06,  avg # of iterations =  2.7

     negative rho (up, down):  8.793E-02 0.000E+00

     total cpu time spent up to now is    18829.7 secs

     total energy              =  -13258.92422754 Ry
     Harris-Foulkes estimate   =  -13258.92959270 Ry
     estimated scf accuracy    <       0.01665276 Ry

     iteration # 78     ecut=    40.42 Ry     beta=0.07
     Davidson diagonalization with overlap
     ethr =  2.41E-06,  avg # of iterations =  3.0

     negative rho (up, down):  8.468E-02 0.000E+00

     total cpu time spent up to now is    19079.4 secs

     total energy              =  -13258.92283343 Ry
     Harris-Foulkes estimate   =  -13258.92489895 Ry
     estimated scf accuracy    <       0.00996426 Ry

     iteration # 79     ecut=    40.42 Ry     beta=0.07
     Davidson diagonalization with overlap
     ethr =  1.44E-06,  avg # of iterations =  2.0

     negative rho (up, down):  5.713E-02 0.000E+00

     total cpu time spent up to now is    19312.2 secs

     total energy              =  -13258.92231376 Ry
     Harris-Foulkes estimate   =  -13258.92298173 Ry
     estimated scf accuracy    <       0.00789880 Ry

     iteration # 80     ecut=    40.42 Ry     beta=0.07
     Davidson diagonalization with overlap
     ethr =  1.14E-06,  avg # of iterations =  2.0

     negative rho (up, down):  5.531E-02 0.000E+00

     total cpu time spent up to now is    19545.9 secs

     total energy              =  -13258.92180564 Ry
     Harris-Foulkes estimate   =  -13258.92250249 Ry
     estimated scf accuracy    <       0.00681203 Ry

     iteration # 81     ecut=    40.42 Ry     beta=0.07
     Davidson diagonalization with overlap
     ethr =  9.87E-07,  avg # of iterations =  2.0

     negative rho (up, down):  4.203E-02 0.000E+00

     total cpu time spent up to now is    19782.9 secs

     total energy              =  -13258.92172935 Ry
     Harris-Foulkes estimate   =  -13258.92201716 Ry
     estimated scf accuracy    <       0.00598621 Ry

     iteration # 82     ecut=    40.42 Ry     beta=0.07
     Davidson diagonalization with overlap
     ethr =  8.68E-07,  avg # of iterations =  3.0

     negative rho (up, down):  5.997E-02 0.000E+00

     total cpu time spent up to now is    20032.3 secs

     total energy              =  -13258.92165848 Ry
     Harris-Foulkes estimate   =  -13258.92201913 Ry
     estimated scf accuracy    <       0.00511158 Ry

     iteration # 83     ecut=    40.42 Ry     beta=0.07
     Davidson diagonalization with overlap
     ethr =  7.41E-07,  avg # of iterations =  4.4

     negative rho (up, down):  6.102E-02 0.000E+00

     total cpu time spent up to now is    20301.9 secs

     total energy              =  -13258.92145495 Ry
     Harris-Foulkes estimate   =  -13258.92199045 Ry
     estimated scf accuracy    <       0.00329886 Ry

     iteration # 84     ecut=    40.42 Ry     beta=0.07
     Davidson diagonalization with overlap
     ethr =  4.78E-07,  avg # of iterations =  2.2

     negative rho (up, down):  5.900E-02 0.000E+00

     total cpu time spent up to now is    20545.5 secs

     total energy              =  -13258.92143824 Ry
     Harris-Foulkes estimate   =  -13258.92153796 Ry
     estimated scf accuracy    <       0.00215836 Ry

     iteration # 85     ecut=    40.42 Ry     beta=0.07
     Davidson diagonalization with overlap
     ethr =  3.13E-07,  avg # of iterations =  2.0

     negative rho (up, down):  5.845E-02 0.000E+00

     total cpu time spent up to now is    20786.3 secs

     total energy              =  -13258.92140484 Ry
     Harris-Foulkes estimate   =  -13258.92146959 Ry
     estimated scf accuracy    <       0.00184949 Ry

     iteration # 86     ecut=    40.42 Ry     beta=0.07
     Davidson diagonalization with overlap
     ethr =  2.68E-07,  avg # of iterations =  2.0

     negative rho (up, down):  4.850E-02 0.000E+00

     total cpu time spent up to now is    21031.8 secs

     total energy              =  -13258.92119158 Ry
     Harris-Foulkes estimate   =  -13258.92143261 Ry
     estimated scf accuracy    <       0.00152102 Ry

     iteration # 87     ecut=    40.42 Ry     beta=0.07
     Davidson diagonalization with overlap
     ethr =  2.20E-07,  avg # of iterations =  2.2

     negative rho (up, down):  4.390E-02 0.000E+00

     total cpu time spent up to now is    21282.7 secs

     total energy              =  -13258.92129072 Ry
     Harris-Foulkes estimate   =  -13258.92125518 Ry
     estimated scf accuracy    <       0.00090157 Ry

     iteration # 88     ecut=    40.42 Ry     beta=0.07
     Davidson diagonalization with overlap
     ethr =  1.31E-07,  avg # of iterations =  3.0

     negative rho (up, down):  4.387E-02 0.000E+00

     total cpu time spent up to now is    21536.2 secs

     total energy              =  -13258.92133513 Ry
     Harris-Foulkes estimate   =  -13258.92132472 Ry
     estimated scf accuracy    <       0.00059365 Ry

     iteration # 89     ecut=    40.42 Ry     beta=0.07
     Davidson diagonalization with overlap
     ethr =  8.60E-08,  avg # of iterations =  1.0

     negative rho (up, down):  3.057E-02 0.000E+00

     total cpu time spent up to now is    21773.7 secs

     total energy              =  -13258.92116266 Ry
     Harris-Foulkes estimate   =  -13258.92134307 Ry
     estimated scf accuracy    <       0.00052704 Ry

     iteration # 90     ecut=    40.42 Ry     beta=0.07
     Davidson diagonalization with overlap
     ethr =  7.64E-08,  avg # of iterations =  2.0

     negative rho (up, down):  1.967E-02 0.000E+00

     total cpu time spent up to now is    22018.1 secs

     total energy              =  -13258.92111892 Ry
     Harris-Foulkes estimate   =  -13258.92117573 Ry
     estimated scf accuracy    <       0.00023557 Ry

     iteration # 91     ecut=    40.42 Ry     beta=0.07
     Davidson diagonalization with overlap
     ethr =  3.41E-08,  avg # of iterations =  2.4

     negative rho (up, down):  1.904E-02 0.000E+00

     total cpu time spent up to now is    22270.9 secs

     total energy              =  -13258.92111699 Ry
     Harris-Foulkes estimate   =  -13258.92113290 Ry
     estimated scf accuracy    <       0.00013249 Ry

     iteration # 92     ecut=    40.42 Ry     beta=0.07
     Davidson diagonalization with overlap
     ethr =  1.92E-08,  avg # of iterations =  1.0

     negative rho (up, down):  8.902E-03 0.000E+00

     total cpu time spent up to now is    22506.2 secs

     total energy              =  -13258.92097030 Ry
     Harris-Foulkes estimate   =  -13258.92111971 Ry
     estimated scf accuracy    <       0.00010400 Ry

     iteration # 93     ecut=    40.42 Ry     beta=0.07
     Davidson diagonalization with overlap
     ethr =  1.51E-08,  avg # of iterations =  3.0

     negative rho (up, down):  9.597E-03 0.000E+00

     total cpu time spent up to now is    22773.4 secs

     total energy              =  -13258.92098654 Ry
     Harris-Foulkes estimate   =  -13258.92098052 Ry
     estimated scf accuracy    <       0.00003381 Ry

     iteration # 94     ecut=    40.42 Ry     beta=0.07
     Davidson diagonalization with overlap
     ethr =  4.90E-09,  avg # of iterations =  2.3

     negative rho (up, down):  9.033E-03 0.000E+00

     total cpu time spent up to now is    23020.9 secs

     total energy              =  -13258.92097510 Ry
     Harris-Foulkes estimate   =  -13258.92098813 Ry
     estimated scf accuracy    <       0.00002616 Ry

     iteration # 95     ecut=    40.42 Ry     beta=0.07
     Davidson diagonalization with overlap
     ethr =  3.79E-09,  avg # of iterations =  2.4

     negative rho (up, down):  8.371E-03 0.000E+00

     total cpu time spent up to now is    23267.2 secs

     total energy              =  -13258.92096159 Ry
     Harris-Foulkes estimate   =  -13258.92097630 Ry
     estimated scf accuracy    <       0.00002157 Ry

     iteration # 96     ecut=    40.42 Ry     beta=0.07
     Davidson diagonalization with overlap
     ethr =  3.13E-09,  avg # of iterations =  2.0

     negative rho (up, down):  7.271E-03 0.000E+00

     total cpu time spent up to now is    23511.6 secs

     total energy              =  -13258.92094367 Ry
     Harris-Foulkes estimate   =  -13258.92096258 Ry
     estimated scf accuracy    <       0.00001487 Ry

     iteration # 97     ecut=    40.42 Ry     beta=0.07
     Davidson diagonalization with overlap
     ethr =  2.15E-09,  avg # of iterations =  2.0

     negative rho (up, down):  6.331E-03 0.000E+00

     total cpu time spent up to now is    23755.5 secs

     total energy              =  -13258.92094726 Ry
     Harris-Foulkes estimate   =  -13258.92094412 Ry
     estimated scf accuracy    <       0.00001070 Ry

     iteration # 98     ecut=    40.42 Ry     beta=0.07
     Davidson diagonalization with overlap
     ethr =  1.55E-09,  avg # of iterations =  3.0

     negative rho (up, down):  6.119E-03 0.000E+00

     total cpu time spent up to now is    24011.9 secs

     total energy              =  -13258.92094764 Ry
     Harris-Foulkes estimate   =  -13258.92094776 Ry
     estimated scf accuracy    <       0.00000754 Ry

     iteration # 99     ecut=    40.42 Ry     beta=0.07
     Davidson diagonalization with overlap
     ethr =  1.09E-09,  avg # of iterations =  2.0

     negative rho (up, down):  5.599E-03 0.000E+00

     total cpu time spent up to now is    24252.2 secs

     total energy              =  -13258.92095073 Ry
     Harris-Foulkes estimate   =  -13258.92094797 Ry
     estimated scf accuracy    <       0.00000436 Ry

     iteration #100     ecut=    40.42 Ry     beta=0.07
     Davidson diagonalization with overlap
     ethr =  6.31E-10,  avg # of iterations =  3.4

     negative rho (up, down):  5.392E-03 0.000E+00

     total cpu time spent up to now is    24517.2 secs

     total energy              =  -13258.92095111 Ry
     Harris-Foulkes estimate   =  -13258.92095110 Ry
     estimated scf accuracy    <       0.00000215 Ry

     iteration #101     ecut=    40.42 Ry     beta=0.07
     Davidson diagonalization with overlap
     ethr =  3.12E-10,  avg # of iterations =  2.5

     negative rho (up, down):  5.261E-03 0.000E+00

     total cpu time spent up to now is    24760.9 secs

     total energy              =  -13258.92095112 Ry
     Harris-Foulkes estimate   =  -13258.92095118 Ry
     estimated scf accuracy    <       0.00000166 Ry

     iteration #102     ecut=    40.42 Ry     beta=0.07
     Davidson diagonalization with overlap
     ethr =  2.40E-10,  avg # of iterations =  2.8

     negative rho (up, down):  5.214E-03 0.000E+00

     total cpu time spent up to now is    25005.8 secs

     total energy              =  -13258.92095094 Ry
     Harris-Foulkes estimate   =  -13258.92095117 Ry
     estimated scf accuracy    <       0.00000132 Ry

     iteration #103     ecut=    40.42 Ry     beta=0.07
     Davidson diagonalization with overlap
     ethr =  1.91E-10,  avg # of iterations =  2.0

     negative rho (up, down):  5.220E-03 0.000E+00

     total cpu time spent up to now is    25253.8 secs

     total energy              =  -13258.92095099 Ry
     Harris-Foulkes estimate   =  -13258.92095099 Ry
     estimated scf accuracy    <       0.00000099 Ry

     iteration #104     ecut=    40.42 Ry     beta=0.07
     Davidson diagonalization with overlap
     ethr =  1.44E-10,  avg # of iterations =  1.0

     negative rho (up, down):  5.097E-03 0.000E+00

     total cpu time spent up to now is    25489.9 secs

     total energy              =  -13258.92095113 Ry
     Harris-Foulkes estimate   =  -13258.92095099 Ry
     estimated scf accuracy    <       0.00000093 Ry

     iteration #105     ecut=    40.42 Ry     beta=0.07
     Davidson diagonalization with overlap
     ethr =  1.34E-10,  avg # of iterations =  2.0

     negative rho (up, down):  5.011E-03 0.000E+00

     total cpu time spent up to now is    25729.0 secs

     total energy              =  -13258.92095124 Ry
     Harris-Foulkes estimate   =  -13258.92095115 Ry
     estimated scf accuracy    <       0.00000072 Ry

     iteration #106     ecut=    40.42 Ry     beta=0.07
     Davidson diagonalization with overlap
     ethr =  1.05E-10,  avg # of iterations =  2.0

     negative rho (up, down):  5.003E-03 0.000E+00

     total cpu time spent up to now is    25967.1 secs

     total energy              =  -13258.92095127 Ry
     Harris-Foulkes estimate   =  -13258.92095126 Ry
     estimated scf accuracy    <       0.00000055 Ry

     iteration #107     ecut=    40.42 Ry     beta=0.07
     Davidson diagonalization with overlap
     ethr =  7.98E-11,  avg # of iterations =  1.0

     negative rho (up, down):  4.970E-03 0.000E+00

     total cpu time spent up to now is    26195.6 secs

     total energy              =  -13258.92095135 Ry
     Harris-Foulkes estimate   =  -13258.92095128 Ry
     estimated scf accuracy    <       0.00000053 Ry

     iteration #108     ecut=    40.42 Ry     beta=0.07
     Davidson diagonalization with overlap
     ethr =  7.68E-11,  avg # of iterations =  2.0

     negative rho (up, down):  4.984E-03 0.000E+00

     total cpu time spent up to now is    26433.3 secs

     total energy              =  -13258.92095132 Ry
     Harris-Foulkes estimate   =  -13258.92095136 Ry
     estimated scf accuracy    <       0.00000042 Ry

     iteration #109     ecut=    40.42 Ry     beta=0.07
     Davidson diagonalization with overlap
     ethr =  6.14E-11,  avg # of iterations =  2.6

     negative rho (up, down):  5.360E-03 0.000E+00

     total cpu time spent up to now is    26669.4 secs

     End of self-consistent calculation

          k = 0.0000 0.0000 0.0000 ( 78011 PWs)   bands (ev):

  -113.9015-113.8057-113.8000-113.7746-113.7724-113.7683-113.7671-113.7658
  -113.7652-113.7643-113.7630-113.7623-113.7617-113.7612-113.7600-113.7594
  -113.7591-113.7585-113.7575-113.7570-113.7565-113.7561-113.7558-113.7552
  -113.7547-113.7540-113.7530-113.7520-113.7512-113.7510-113.7499-113.7495
   -71.3376 -71.3230 -71.2589 -71.2489 -71.2445 -71.2419 -71.2389 -71.2338
   -71.2316 -71.2295 -71.2260 -71.2244 -71.2230 -71.2204 -71.2183 -71.2177
   -71.2166 -71.2163 -71.2153 -71.2140 -71.2106 -71.2061 -71.2044 -71.2032
   -71.2015 -71.1965 -71.1957 -71.1946 -71.1932 -71.1923 -71.1919 -71.1908
   -71.1901 -71.1889 -71.1888 -71.1885 -71.1881 -71.1843 -71.1839 -71.1831
   -71.1824 -71.1807 -71.1804 -71.1799 -71.1788 -71.1776 -71.1724 -71.1721
   -71.1686 -71.1683 -71.1663 -71.1653 -71.1651 -71.1641 -71.1632 -71.1583
   -71.1579 -71.1566 -71.1550 -71.1546 -71.1536 -71.1530 -71.1524 -71.1471
   -71.1456 -71.1452 -71.1448 -71.1246 -71.1201 -71.1151 -71.1146 -71.1136
   -71.1092 -71.1062 -71.1018 -71.1007 -71.0999 -71.0985 -71.0961 -71.0950
   -71.0930 -71.0864 -71.0855 -71.0846 -71.0827 -71.0811 -71.0807 -71.0783
   -71.0781 -71.0767 -71.0761 -71.0752 -71.0733 -71.0722 -71.0717 -71.0692
   -24.7082 -24.3259 -23.0506 -22.6068 -22.3916 -22.1541 -21.7632 -21.6061
   -16.3885 -15.4692 -13.9893 -12.8914 -12.1684 -11.2518 -10.3246  -9.9859
    -9.6026  -9.4963  -9.3618  -8.8835  -8.5971  -8.5600  -8.1744  -8.0683
    -7.7344  -7.7202  -7.6848  -7.6780  -7.6757  -7.6735  -7.6732  -7.4154
    -6.9482  -6.8164  -6.7129  -6.6003  -6.1756  -5.8043  -5.8016  -5.7982
    -5.7739  -5.7720  -5.7691  -5.6444  -5.6406  -5.6400  -5.6361  -5.6347
    -5.6336  -5.6043  -5.5580  -5.5539  -5.5495  -5.5467  -5.5458  -5.5334
    -5.3224  -5.3149  -5.3137  -5.1276  -5.0523  -5.0402  -5.0396  -5.0327
    -5.0310  -5.0279  -5.0058  -4.9853  -4.9824  -4.9774  -4.9752  -4.9743
    -4.9272  -4.8028  -4.7831  -4.7797  -4.7786  -4.7766  -4.7761  -4.7428
    -4.5506  -4.4872  -4.4860  -4.4823  -4.4556  -4.4501  -4.4461  -4.4412
    -4.4394  -4.4391  -4.4271  -4.3862  -4.3749  -4.3685  -4.3631  -4.3588
    -4.3555  -4.3517  -4.3402  -4.3321  -4.3244  -4.3215  -4.3188  -4.3143
    -4.2444  -4.2373  -4.2364  -4.2317  -4.2300  -4.2277  -4.2262  -4.2251
    -4.2238  -4.2232  -4.2206  -4.2109  -4.2103  -4.2059  -4.1341  -4.1339
    -4.0791  -4.0727  -4.0680  -4.0632  -4.0616  -4.0498  -4.0431  -4.0411
    -4.0371  -4.0339  -4.0329  -4.0312  -3.9048  -3.9033  -3.8986  -3.8069
    -3.8046  -3.7989  -3.7961  -3.7943  -3.7927  -3.6945  -3.6359  -3.5979
    -3.5963  -3.5945  -3.5882  -3.5867  -3.5857  -3.5831  -3.5803  -3.5754
    -3.5730  -3.5723  -3.5584  -3.5565  -3.5493  -3.5438  -3.4974  -3.4258
    -3.4192  -3.4054  -3.4022  -3.4014  -3.3984  -3.3975  -3.3943  -3.3911
    -3.3885  -3.3814  -3.3804  -3.3783  -3.3765  -3.3664  -3.3168  -3.3084
    -3.3054  -3.3022  -3.3003  -3.2970  -3.2950  -3.2929  -3.2828  -3.2038
    -3.1483  -3.1466  -3.1424  -3.0732  -3.0689  -3.0583  -3.0563  -3.0546
    -3.0517  -3.0515  -3.0497  -2.9735  -2.9700  -2.9690  -2.9659  -2.9653
    -2.9648  -2.8923  -2.8639  -2.8628  -2.8585  -2.8089  -2.8082  -2.8055
    -2.5972  -2.1298  -2.1267  -2.1011  -2.0982  -2.0787  -2.0124  -1.3588
    -1.2007  -1.1945  -1.1904  -1.1879  -1.1818  -1.1783  -1.0500  -1.0471
    -1.0419   0.0570   0.0665

          k = 0.0000 0.0282 0.0000 ( 77928 PWs)   bands (ev):

  -113.9015-113.8057-113.8000-113.7746-113.7724-113.7682-113.7673-113.7660
  -113.7648-113.7643-113.7630-113.7622-113.7621-113.7610-113.7600-113.7595
  -113.7590-113.7584-113.7577-113.7570-113.7566-113.7561-113.7557-113.7552
  -113.7548-113.7540-113.7530-113.7520-113.7512-113.7510-113.7499-113.7496
   -71.3375 -71.3230 -71.2586 -71.2477 -71.2450 -71.2411 -71.2385 -71.2320
   -71.2301 -71.2274 -71.2256 -71.2237 -71.2229 -71.2215 -71.2196 -71.2192
   -71.2174 -71.2164 -71.2138 -71.2130 -71.2122 -71.2100 -71.2086 -71.2067
   -71.2046 -71.2005 -71.1993 -71.1987 -71.1953 -71.1949 -71.1920 -71.1904
   -71.1895 -71.1883 -71.1873 -71.1847 -71.1836 -71.1824 -71.1816 -71.1806
   -71.1788 -71.1784 -71.1779 -71.1751 -71.1742 -71.1734 -71.1724 -71.1715
   -71.1700 -71.1686 -71.1668 -71.1656 -71.1648 -71.1642 -71.1631 -71.1599
   -71.1593 -71.1585 -71.1570 -71.1556 -71.1545 -71.1531 -71.1512 -71.1491
   -71.1463 -71.1459 -71.1448 -71.1244 -71.1203 -71.1167 -71.1133 -71.1125
   -71.1082 -71.1066 -71.1032 -71.1013 -71.1000 -71.0988 -71.0950 -71.0947
   -71.0927 -71.0866 -71.0858 -71.0844 -71.0829 -71.0814 -71.0803 -71.0785
   -71.0780 -71.0765 -71.0761 -71.0751 -71.0735 -71.0722 -71.0717 -71.0692
   -24.7082 -24.3258 -23.0506 -22.6068 -22.3916 -22.1541 -21.7633 -21.6060
   -16.3883 -15.4694 -13.9893 -12.8915 -12.1687 -11.2514 -10.3251  -9.9842
    -9.6020  -9.3975  -9.3386  -8.8823  -8.6028  -8.5627  -8.4184  -8.1706
    -8.0661  -7.9896  -7.9777  -7.7270  -7.4646  -7.2083  -7.1973  -6.9510
    -6.9049  -6.7285  -6.6952  -6.5943  -6.1781  -6.0651  -6.0637  -5.9725
    -5.9500  -5.8186  -5.8163  -5.6864  -5.6833  -5.6722  -5.6647  -5.6591
    -5.6551  -5.6454  -5.5715  -5.4371  -5.3931  -5.3897  -5.3875  -5.3861
    -5.2909  -5.2826  -5.2764  -5.2012  -5.1957  -5.1280  -5.0939  -5.0851
    -5.0696  -5.0639  -5.0499  -5.0483  -5.0128  -4.9919  -4.9878  -4.9826
    -4.9767  -4.9348  -4.8811  -4.8694  -4.7848  -4.6672  -4.6568  -4.5561
    -4.5476  -4.5248  -4.5195  -4.4713  -4.4688  -4.4634  -4.4613  -4.4379
    -4.4270  -4.4152  -4.4079  -4.4058  -4.3749  -4.3708  -4.3666  -4.3609
    -4.3587  -4.3456  -4.3348  -4.3297  -4.3094  -4.3064  -4.2737  -4.2713
    -4.2654  -4.2601  -4.2507  -4.2428  -4.2373  -4.2339  -4.1798  -4.1743
    -4.1695  -4.1667  -4.1632  -4.1606  -4.1181  -4.1171  -4.1017  -4.0988
    -4.0936  -4.0800  -4.0617  -4.0586  -4.0546  -4.0494  -3.9731  -3.9472
    -3.9458  -3.9390  -3.9363  -3.9225  -3.9192  -3.9081  -3.8906  -3.8823
    -3.8195  -3.8122  -3.8046  -3.7951  -3.7901  -3.7884  -3.7093  -3.6620
    -3.6541  -3.6492  -3.6300  -3.6089  -3.6041  -3.6008  -3.5943  -3.5833
    -3.5455  -3.5347  -3.5192  -3.4823  -3.4640  -3.4358  -3.4304  -3.4175
    -3.4135  -3.4080  -3.4071  -3.3960  -3.3932  -3.3765  -3.3756  -3.3719
    -3.3609  -3.3534  -3.3512  -3.3409  -3.3391  -3.3131  -3.3109  -3.2825
    -3.2816  -3.2591  -3.2437  -3.2379  -3.2248  -3.2241  -3.2093  -3.2073
    -3.1743  -3.1709  -3.1505  -3.1334  -3.0900  -3.0838  -3.0819  -3.0786
    -3.0620  -3.0525  -3.0490  -3.0246  -3.0218  -2.9934  -2.9923  -2.9748
    -2.9721  -2.9681  -2.9667  -2.9070  -2.8899  -2.8858  -2.8834  -2.8612
    -2.6111  -2.5245  -2.2916  -2.2499  -2.1572  -2.1542  -1.9878  -1.7257
    -1.6977  -1.4419  -1.2006  -1.1958  -1.1491  -1.1440  -1.0886  -0.0819
    -0.0584   0.0968   0.1076

          k = 0.0000-0.0565 0.0000 ( 77806 PWs)   bands (ev):

  -113.9015-113.8057-113.8000-113.7746-113.7724-113.7681-113.7676-113.7661
  -113.7645-113.7643-113.7629-113.7626-113.7620-113.7607-113.7601-113.7595
  -113.7589-113.7582-113.7578-113.7570-113.7567-113.7560-113.7556-113.7552
  -113.7548-113.7541-113.7530-113.7520-113.7512-113.7510-113.7499-113.7496
   -71.3375 -71.3230 -71.2584 -71.2464 -71.2453 -71.2401 -71.2384 -71.2296
   -71.2276 -71.2257 -71.2244 -71.2240 -71.2236 -71.2218 -71.2208 -71.2198
   -71.2183 -71.2167 -71.2157 -71.2146 -71.2137 -71.2112 -71.2099 -71.2077
   -71.2065 -71.2059 -71.2053 -71.2015 -71.1966 -71.1934 -71.1919 -71.1908
   -71.1883 -71.1872 -71.1868 -71.1834 -71.1817 -71.1808 -71.1798 -71.1774
   -71.1760 -71.1752 -71.1746 -71.1737 -71.1728 -71.1718 -71.1715 -71.1710
   -71.1691 -71.1670 -71.1658 -71.1646 -71.1646 -71.1627 -71.1622 -71.1621
   -71.1616 -71.1593 -71.1592 -71.1581 -71.1566 -71.1545 -71.1533 -71.1492
   -71.1473 -71.1462 -71.1447 -71.1243 -71.1205 -71.1175 -71.1128 -71.1112
   -71.1082 -71.1064 -71.1038 -71.1024 -71.1001 -71.0993 -71.0946 -71.0934
   -71.0928 -71.0870 -71.0859 -71.0844 -71.0830 -71.0815 -71.0800 -71.0785
   -71.0783 -71.0763 -71.0760 -71.0749 -71.0737 -71.0722 -71.0716 -71.0692
   -24.7081 -24.3258 -23.0506 -22.6068 -22.3916 -22.1541 -21.7633 -21.6059
   -16.3881 -15.4697 -13.9892 -12.8915 -12.1689 -11.2511 -10.3256  -9.9825
    -9.6011  -9.3739  -9.0083  -8.9996  -8.8786  -8.6019  -8.5594  -8.1682
    -8.0929  -8.0873  -8.0593  -7.7279  -7.4559  -6.9478  -6.7433  -6.6467
    -6.6310  -6.6294  -6.6253  -6.5860  -6.3966  -6.3796  -6.3085  -6.3049
    -6.1776  -5.7720  -5.7690  -5.7672  -5.7636  -5.7053  -5.6923  -5.5778
    -5.5231  -5.5116  -5.4619  -5.4583  -5.4534  -5.4523  -5.2955  -5.2893
    -5.2194  -5.2081  -5.2024  -5.1930  -5.1910  -5.1908  -5.1878  -5.1862
    -5.1696  -5.1636  -5.1399  -5.1318  -5.1102  -5.0160  -4.9970  -4.9759
    -4.9519  -4.9460  -4.9448  -4.9104  -4.7861  -4.6112  -4.6019  -4.5551
    -4.5499  -4.5390  -4.4429  -4.4352  -4.4226  -4.4199  -4.4121  -4.4100
    -4.4081  -4.4071  -4.4046  -4.4016  -4.3980  -4.3956  -4.3929  -4.3845
    -4.3836  -4.3661  -4.3620  -4.3545  -4.3528  -4.3466  -4.3399  -4.3162
    -4.3105  -4.2883  -4.2821  -4.2462  -4.2412  -4.1801  -4.1754  -4.1730
    -4.1691  -4.1098  -4.1073  -4.0595  -4.0556  -4.0504  -4.0455  -4.0450
    -4.0412  -4.0399  -4.0389  -4.0369  -4.0347  -3.9877  -3.9791  -3.8698
    -3.8571  -3.8529  -3.8445  -3.8436  -3.8405  -3.8367  -3.8231  -3.8104
    -3.8041  -3.7907  -3.7817  -3.7803  -3.7787  -3.7747  -3.7702  -3.6831
    -3.6665  -3.6610  -3.6462  -3.6332  -3.6312  -3.6275  -3.6164  -3.6046
    -3.5597  -3.5351  -3.5238  -3.5052  -3.4710  -3.4600  -3.4548  -3.4538
    -3.4492  -3.4457  -3.4316  -3.4141  -3.4104  -3.3740  -3.3526  -3.3479
    -3.2793  -3.2720  -3.2656  -3.2635  -3.2432  -3.2390  -3.2373  -3.2348
    -3.2270  -3.1978  -3.1954  -3.1918  -3.1905  -3.1881  -3.1862  -3.1740
    -3.1707  -3.1282  -3.1232  -3.1017  -3.0997  -3.0878  -3.0857  -3.0804
    -3.0792  -3.0584  -3.0501  -3.0484  -3.0428  -3.0201  -3.0102  -3.0018
    -2.9979  -2.9658  -2.9651  -2.9595  -2.9534  -2.9503  -2.8703  -2.8460
    -2.8205  -2.8171  -2.8139  -2.8130  -2.5769  -2.3416  -2.2974  -1.2149
    -1.2058  -1.2001  -1.1976  -1.0748  -1.0511  -1.0420  -1.0309  -0.5669
    -0.5346  -0.4828  -0.4225

          k = 0.0245 0.0424 0.0000 ( 77832 PWs)   bands (ev):

  -113.9015-113.8057-113.8000-113.7746-113.7724-113.7681-113.7674-113.7661
  -113.7647-113.7643-113.7629-113.7625-113.7621-113.7612-113.7598-113.7594
  -113.7589-113.7581-113.7578-113.7571-113.7567-113.7560-113.7556-113.7553
  -113.7547-113.7542-113.7529-113.7520-113.7513-113.7510-113.7499-113.7496
   -71.3375 -71.3230 -71.2585 -71.2462 -71.2453 -71.2402 -71.2391 -71.2299
   -71.2277 -71.2255 -71.2245 -71.2236 -71.2229 -71.2218 -71.2208 -71.2190
   -71.2184 -71.2174 -71.2159 -71.2144 -71.2128 -71.2120 -71.2107 -71.2087
   -71.2074 -71.2046 -71.2018 -71.2001 -71.1971 -71.1951 -71.1939 -71.1930
   -71.1887 -71.1876 -71.1844 -71.1833 -71.1825 -71.1811 -71.1792 -71.1773
   -71.1764 -71.1757 -71.1741 -71.1734 -71.1726 -71.1711 -71.1699 -71.1695
   -71.1682 -71.1676 -71.1668 -71.1655 -71.1642 -71.1637 -71.1627 -71.1617
   -71.1612 -71.1603 -71.1591 -71.1585 -71.1575 -71.1544 -71.1509 -71.1502
   -71.1476 -71.1461 -71.1448 -71.1240 -71.1208 -71.1174 -71.1129 -71.1112
   -71.1084 -71.1066 -71.1030 -71.1019 -71.1002 -71.0995 -71.0961 -71.0937
   -71.0914 -71.0875 -71.0850 -71.0846 -71.0832 -71.0816 -71.0805 -71.0783
   -71.0779 -71.0764 -71.0760 -71.0750 -71.0737 -71.0722 -71.0717 -71.0692
   -24.7081 -24.3258 -23.0506 -22.6068 -22.3916 -22.1541 -21.7633 -21.6060
   -16.3882 -15.4695 -13.9893 -12.8917 -12.1686 -11.2511 -10.3249  -9.9836
    -9.6020  -9.3743  -9.1214  -8.8831  -8.6651  -8.6458  -8.5914  -8.5523
    -8.1695  -8.0646  -7.7275  -7.4911  -7.3690  -7.3411  -6.9483  -6.7367
    -6.6643  -6.6138  -6.5054  -6.5014  -6.4804  -6.1819  -6.1186  -6.1008
    -6.0755  -6.0723  -6.0546  -6.0532  -5.6116  -5.5902  -5.5701  -5.5318
    -5.5258  -5.4852  -5.4799  -5.4106  -5.4070  -5.3275  -5.3253  -5.3215
    -5.3097  -5.2919  -5.2850  -5.2346  -5.2310  -5.2110  -5.2091  -5.1359
    -5.1138  -5.1119  -5.0981  -5.0921  -5.0699  -5.0676  -5.0103  -4.9837
    -4.9692  -4.9323  -4.8785  -4.7965  -4.7691  -4.7600  -4.6778  -4.6289
    -4.6191  -4.5510  -4.4772  -4.4749  -4.4609  -4.4393  -4.4325  -4.4289
    -4.4268  -4.4240  -4.4170  -4.4119  -4.4092  -4.3861  -4.3803  -4.3756
    -4.3681  -4.3646  -4.3582  -4.3542  -4.3470  -4.3075  -4.2993  -4.2860
    -4.2677  -4.2593  -4.2223  -4.1914  -4.1863  -4.1819  -4.1716  -4.1498
    -4.1406  -4.0813  -4.0793  -4.0717  -4.0545  -4.0321  -4.0213  -4.0174
    -4.0157  -4.0122  -3.9656  -3.9576  -3.9315  -3.9235  -3.9201  -3.9146
    -3.9129  -3.9124  -3.8913  -3.8899  -3.8808  -3.8619  -3.8566  -3.8499
    -3.8467  -3.8251  -3.8196  -3.8046  -3.7936  -3.7825  -3.7600  -3.7503
    -3.7265  -3.7219  -3.6888  -3.6738  -3.6232  -3.6101  -3.5765  -3.5435
    -3.5292  -3.5156  -3.5003  -3.4962  -3.4867  -3.4594  -3.4461  -3.4257
    -3.4237  -3.4199  -3.4097  -3.4023  -3.3962  -3.3780  -3.3576  -3.3518
    -3.3371  -3.3284  -3.3071  -3.3030  -3.2527  -3.2406  -3.2337  -3.2302
    -3.2271  -3.2203  -3.1965  -3.1925  -3.1921  -3.1911  -3.1895  -3.1764
    -3.1685  -3.1412  -3.1362  -3.1351  -3.1312  -3.1092  -3.1036  -3.0942
    -3.0901  -3.0779  -3.0552  -3.0463  -3.0402  -3.0341  -3.0307  -3.0175
    -2.9878  -2.9842  -2.9703  -2.9494  -2.9471  -2.9056  -2.8942  -2.8789
    -2.7876  -2.6885  -2.6412  -2.5651  -2.2580  -2.2572  -2.2085  -2.2020
    -1.8327  -1.7962  -1.0899  -0.9131  -0.8865  -0.6558  -0.2198  -0.0420
    -0.0230   0.0298   0.0548

          k =-0.0245 0.0141 0.0000 ( 77928 PWs)   bands (ev):

  -113.9015-113.8057-113.8000-113.7746-113.7724-113.7682-113.7674-113.7657
  -113.7651-113.7644-113.7629-113.7623-113.7618-113.7612-113.7602-113.7592
  -113.7590-113.7585-113.7575-113.7570-113.7565-113.7562-113.7557-113.7552
  -113.7547-113.7542-113.7529-113.7520-113.7513-113.7510-113.7499-113.7495
   -71.3376 -71.3230 -71.2587 -71.2476 -71.2438 -71.2411 -71.2389 -71.2322
   -71.2303 -71.2275 -71.2259 -71.2254 -71.2234 -71.2213 -71.2194 -71.2191
   -71.2174 -71.2162 -71.2149 -71.2131 -71.2124 -71.2093 -71.2071 -71.2051
   -71.2041 -71.2014 -71.1997 -71.1991 -71.1962 -71.1938 -71.1929 -71.1901
   -71.1894 -71.1887 -71.1853 -71.1838 -71.1835 -71.1830 -71.1814 -71.1809
   -71.1803 -71.1785 -71.1775 -71.1755 -71.1743 -71.1737 -71.1722 -71.1711
   -71.1699 -71.1676 -71.1671 -71.1666 -71.1654 -71.1643 -71.1630 -71.1600
   -71.1592 -71.1585 -71.1574 -71.1550 -71.1546 -71.1532 -71.1511 -71.1495
   -71.1462 -71.1456 -71.1447 -71.1245 -71.1205 -71.1156 -71.1143 -71.1123
   -71.1088 -71.1057 -71.1037 -71.1016 -71.1002 -71.0977 -71.0954 -71.0946
   -71.0930 -71.0868 -71.0855 -71.0846 -71.0825 -71.0816 -71.0803 -71.0784
   -71.0780 -71.0767 -71.0762 -71.0751 -71.0733 -71.0722 -71.0717 -71.0692
   -24.7082 -24.3258 -23.0506 -22.6068 -22.3916 -22.1541 -21.7633 -21.6060
   -16.3883 -15.4694 -13.9892 -12.8913 -12.1686 -11.2516 -10.3249  -9.9845
    -9.6016  -9.3999  -9.3360  -8.8828  -8.6013  -8.5620  -8.4205  -8.1743
    -8.0704  -7.9841  -7.9761  -7.7263  -7.4660  -7.2113  -7.1941  -6.9482
    -6.9037  -6.7236  -6.7006  -6.5968  -6.1794  -6.0652  -6.0635  -5.9736
    -5.9529  -5.8186  -5.8154  -5.6859  -5.6822  -5.6693  -5.6622  -5.6602
    -5.6541  -5.6467  -5.5715  -5.4387  -5.3946  -5.3890  -5.3876  -5.3852
    -5.2884  -5.2830  -5.2786  -5.1992  -5.1945  -5.1286  -5.0944  -5.0853
    -5.0683  -5.0634  -5.0525  -5.0488  -5.0198  -4.9913  -4.9898  -4.9799
    -4.9762  -4.9274  -4.8808  -4.8701  -4.7850  -4.6661  -4.6585  -4.5535
    -4.5496  -4.5239  -4.5210  -4.4709  -4.4679  -4.4638  -4.4609  -4.4344
    -4.4325  -4.4161  -4.4096  -4.4055  -4.3754  -4.3708  -4.3679  -4.3626
    -4.3579  -4.3443  -4.3349  -4.3302  -4.3092  -4.3055  -4.2743  -4.2686
    -4.2660  -4.2602  -4.2517  -4.2430  -4.2367  -4.2347  -4.1796  -4.1734
    -4.1688  -4.1659  -4.1632  -4.1609  -4.1202  -4.1165  -4.1023  -4.0984
    -4.0936  -4.0773  -4.0630  -4.0592  -4.0548  -4.0478  -3.9715  -3.9470
    -3.9455  -3.9394  -3.9377  -3.9211  -3.9198  -3.9081  -3.8931  -3.8811
    -3.8181  -3.8132  -3.8030  -3.7958  -3.7896  -3.7886  -3.7081  -3.6605
    -3.6551  -3.6492  -3.6348  -3.6069  -3.6028  -3.5999  -3.5946  -3.5812
    -3.5489  -3.5359  -3.5160  -3.4839  -3.4658  -3.4380  -3.4321  -3.4147
    -3.4131  -3.4076  -3.4062  -3.3953  -3.3929  -3.3787  -3.3720  -3.3693
    -3.3607  -3.3537  -3.3511  -3.3424  -3.3388  -3.3128  -3.3103  -3.2848
    -3.2827  -3.2621  -3.2411  -3.2398  -3.2247  -3.2238  -3.2097  -3.2029
    -3.1735  -3.1711  -3.1514  -3.1337  -3.0908  -3.0849  -3.0822  -3.0773
    -3.0648  -3.0518  -3.0474  -3.0238  -3.0221  -2.9934  -2.9912  -2.9768
    -2.9733  -2.9675  -2.9666  -2.9070  -2.8900  -2.8854  -2.8827  -2.8612
    -2.6014  -2.5379  -2.2863  -2.2481  -2.1578  -2.1534  -1.9860  -1.7300
    -1.6941  -1.4450  -1.2054  -1.1976  -1.1501  -1.1436  -1.0858  -0.0908
    -0.0502   0.0978   0.1087

          k = 0.0245 0.0141 0.0000 ( 77928 PWs)   bands (ev):

  -113.9015-113.8057-113.8000-113.7746-113.7724-113.7683-113.7672-113.7660
  -113.7650-113.7643-113.7629-113.7624-113.7619-113.7614-113.7598-113.7594
  -113.7589-113.7584-113.7576-113.7570-113.7566-113.7561-113.7556-113.7553
  -113.7547-113.7542-113.7529-113.7520-113.7513-113.7510-113.7499-113.7495
   -71.3375 -71.3230 -71.2587 -71.2476 -71.2448 -71.2411 -71.2395 -71.2323
   -71.2293 -71.2279 -71.2261 -71.2240 -71.2224 -71.2213 -71.2198 -71.2181
   -71.2170 -71.2161 -71.2138 -71.2133 -71.2130 -71.2091 -71.2080 -71.2052
   -71.2047 -71.2036 -71.1995 -71.1985 -71.1976 -71.1944 -71.1912 -71.1904
   -71.1897 -71.1888 -71.1873 -71.1840 -71.1832 -71.1820 -71.1813 -71.1806
   -71.1797 -71.1787 -71.1772 -71.1748 -71.1744 -71.1738 -71.1725 -71.1714
   -71.1697 -71.1685 -71.1670 -71.1660 -71.1646 -71.1634 -71.1629 -71.1602
   -71.1594 -71.1586 -71.1567 -71.1561 -71.1540 -71.1538 -71.1510 -71.1491
   -71.1462 -71.1459 -71.1448 -71.1242 -71.1206 -71.1165 -71.1139 -71.1121
   -71.1087 -71.1065 -71.1018 -71.1013 -71.1003 -71.0992 -71.0962 -71.0946
   -71.0920 -71.0868 -71.0850 -71.0846 -71.0830 -71.0812 -71.0811 -71.0782
   -71.0778 -71.0766 -71.0761 -71.0752 -71.0734 -71.0722 -71.0717 -71.0692
   -24.7082 -24.3258 -23.0506 -22.6068 -22.3916 -22.1541 -21.7632 -21.6060
   -16.3884 -15.4692 -13.9894 -12.8916 -12.1684 -11.2515 -10.3244  -9.9853
    -9.6029  -9.3982  -9.3383  -8.8831  -8.5992  -8.5610  -8.4195  -8.1724
    -8.0723  -7.9857  -7.9738  -7.7265  -7.4668  -7.2082  -7.1993  -6.9487
    -6.9032  -6.7222  -6.7022  -6.5971  -6.1765  -6.0654  -6.0636  -5.9726
    -5.9532  -5.8186  -5.8163  -5.6873  -5.6832  -5.6738  -5.6630  -5.6589
    -5.6509  -5.6456  -5.5693  -5.4399  -5.3941  -5.3892  -5.3879  -5.3842
    -5.2901  -5.2825  -5.2766  -5.1984  -5.1969  -5.1291  -5.0935  -5.0852
    -5.0670  -5.0627  -5.0502  -5.0486  -5.0126  -4.9973  -4.9895  -4.9859
    -4.9756  -4.9363  -4.8792  -4.8638  -4.7867  -4.6656  -4.6567  -4.5542
    -4.5510  -4.5224  -4.5195  -4.4739  -4.4673  -4.4638  -4.4618  -4.4393
    -4.4255  -4.4138  -4.4099  -4.4053  -4.3766  -4.3704  -4.3654  -4.3618
    -4.3584  -4.3446  -4.3326  -4.3312  -4.3077  -4.3065  -4.2748  -4.2692
    -4.2642  -4.2612  -4.2520  -4.2412  -4.2368  -4.2349  -4.1818  -4.1752
    -4.1712  -4.1658  -4.1621  -4.1594  -4.1185  -4.1162  -4.1018  -4.0989
    -4.0933  -4.0830  -4.0631  -4.0570  -4.0537  -4.0480  -3.9751  -3.9470
    -3.9461  -3.9394  -3.9367  -3.9216  -3.9199  -3.9107  -3.8900  -3.8822
    -3.8174  -3.8144  -3.8049  -3.7949  -3.7895  -3.7878  -3.7082  -3.6600
    -3.6543  -3.6500  -3.6265  -3.6084  -3.6043  -3.6010  -3.5925  -3.5870
    -3.5466  -3.5351  -3.5171  -3.4830  -3.4758  -3.4341  -3.4272  -3.4135
    -3.4128  -3.4090  -3.4072  -3.3975  -3.3939  -3.3775  -3.3728  -3.3687
    -3.3637  -3.3532  -3.3485  -3.3436  -3.3390  -3.3124  -3.3109  -3.2857
    -3.2806  -3.2608  -3.2440  -3.2380  -3.2252  -3.2238  -3.2091  -3.2059
    -3.1735  -3.1716  -3.1498  -3.1310  -3.0918  -3.0856  -3.0801  -3.0775
    -3.0587  -3.0547  -3.0502  -3.0250  -3.0214  -2.9944  -2.9916  -2.9739
    -2.9725  -2.9679  -2.9676  -2.9071  -2.8898  -2.8843  -2.8829  -2.8612
    -2.6102  -2.5239  -2.2836  -2.2601  -2.1580  -2.1541  -1.9882  -1.7296
    -1.6947  -1.4424  -1.2004  -1.1969  -1.1481  -1.1442  -1.0873  -0.0949
    -0.0468   0.0933   0.1090

          k = 0.0489-0.0282 0.0000 ( 77806 PWs)   bands (ev):

  -113.9015-113.8057-113.8000-113.7746-113.7724-113.7681-113.7677-113.7656
  -113.7650-113.7645-113.7628-113.7622-113.7620-113.7610-113.7605-113.7591
  -113.7589-113.7584-113.7575-113.7570-113.7565-113.7562-113.7556-113.7551
  -113.7547-113.7544-113.7528-113.7520-113.7513-113.7510-113.7500-113.7495
   -71.3375 -71.3229 -71.2586 -71.2460 -71.2431 -71.2403 -71.2387 -71.2294
   -71.2293 -71.2272 -71.2256 -71.2251 -71.2231 -71.2219 -71.2213 -71.2198
   -71.2183 -71.2176 -71.2161 -71.2150 -71.2131 -71.2085 -71.2084 -71.2068
   -71.2064 -71.2053 -71.2040 -71.2020 -71.1991 -71.1946 -71.1918 -71.1906
   -71.1889 -71.1858 -71.1834 -71.1827 -71.1816 -71.1810 -71.1793 -71.1785
   -71.1781 -71.1763 -71.1747 -71.1737 -71.1729 -71.1727 -71.1705 -71.1696
   -71.1680 -71.1670 -71.1661 -71.1654 -71.1649 -71.1636 -71.1631 -71.1628
   -71.1610 -71.1593 -71.1590 -71.1582 -71.1555 -71.1548 -71.1536 -71.1497
   -71.1464 -71.1460 -71.1447 -71.1244 -71.1209 -71.1160 -71.1139 -71.1112
   -71.1081 -71.1061 -71.1042 -71.1031 -71.1003 -71.0974 -71.0952 -71.0938
   -71.0928 -71.0873 -71.0856 -71.0845 -71.0823 -71.0821 -71.0799 -71.0786
   -71.0779 -71.0766 -71.0763 -71.0751 -71.0734 -71.0722 -71.0717 -71.0692
   -24.7081 -24.3258 -23.0506 -22.6069 -22.3915 -22.1540 -21.7633 -21.6060
   -16.3882 -15.4696 -13.9891 -12.8911 -12.1689 -11.2515 -10.3252  -9.9832
    -9.6005  -9.3741  -9.0079  -8.9991  -8.8759  -8.6046  -8.5614  -8.1779
[...]
              0.124772056119423E-03             -0.782401510053968E-05             -0.109610111496318E-02
             -0.110089386055858E-02             -0.257740740779224E-03             -0.578168555036279E-03
              0.155366623507947E-03             -0.677930190794297E-04             -0.694954780740765E-03
             -0.385456052592675E-03              0.314266847554588E-03              0.150672160740627E-02
              0.147962886686496E-03              0.482084506083660E-05             -0.128982537709626E-02
             -0.351373320691593E-03              0.181832652697112E-03              0.111903979301656E-02
              0.173047161565590E-04              0.116023833973485E-03             -0.115070051468197E-02
              0.416785748772258E-03             -0.105098370587789E-02              0.382227100794652E-03
             -0.104840109164187E-03             -0.843318860910915E-04             -0.611507574821726E-03
             -0.767115103928125E-03             -0.794812264325906E-03             -0.410991082322507E-02
             -0.140433613825302E-04             -0.168876973157075E-04             -0.526055419282592E-03
              0.150367488925271E-03              0.420296810294415E-03              0.210929293279254E-02
              0.420528402483546E-04              0.323336972971863E-05             -0.512989513424810E-03
              0.197492383203674E-03              0.155235289822246E-03              0.101015335209195E-02
              0.355069532032823E-04              0.144279960140751E-04             -0.836843972447467E-03
              0.289045898773809E-04              0.438602759028773E-04              0.837820339493976E-03
              0.138615058647093E-04             -0.183162526669564E-03             -0.882006745177423E-03
              0.698275447917315E-03              0.638633012798006E-03              0.284588088884085E-03
             -0.154276814223933E-03              0.956077264057786E-04             -0.119544278960904E-02
              0.392873412563638E-03             -0.160444221393089E-04              0.228529786403456E-03
             -0.248507335151501E-02             -0.267927139831698E-02             -0.143848536451383E-02
              0.956537841465741E-03              0.336745406680207E-03              0.300456715846667E-02
              0.298786706066585E-02             -0.367531351224959E-03             -0.475770129741746E-03
             -0.278377228231892E-02              0.814010140984558E-02             -0.502182416914415E-02
             -0.158415480413857E-02              0.780342480577291E-02              0.293450294939378E-02
              0.218292346947164E-02              0.791089590830465E-02             -0.479385989160328E-02
             -0.220862467772337E-02             -0.567958415059737E-03             -0.322068053783270E-02
              0.581299560534103E-02             -0.967444839282887E-02             -0.581374073934612E-02
             -0.375142751368185E-02             -0.952566450077677E-03             -0.331828430442426E-02
             -0.710066717071451E-03             -0.325402406571001E-02              0.127017691883605E-02
              0.484165945662995E-02              0.720098500071843E-02              0.585621792488415E-02
             -0.464468207097692E-02             -0.153765396751216E-02              0.291204814185332E-02
              0.212348186075130E-02             -0.918690587344899E-02              0.278770089630269E-02
             -0.614758070868717E-02              0.364809214832784E-02              0.225237252899669E-02
              0.396215752421296E-02             -0.653133518257745E-03             -0.393534671432540E-03
              0.166862471709779E-02             -0.391941360626336E-02             -0.504153236378932E-03
             -0.892264365601101E-02              0.595935090193292E-02              0.352186739563178E-03
              0.951497382392181E-03              0.518647695867998E-03             -0.438151505229701E-03
              0.357910484240760E-02              0.220730215658393E-02              0.161433387547619E-02
             -0.255689858290249E-02              0.102771667654062E-02              0.444330670493760E-02
             -0.169900164482812E-02             -0.690200702323009E-02             -0.281211419355961E-02
              0.558161963410059E-02             -0.198408267318522E-02              0.340482282982614E-02
              0.573113832066904E-02             -0.437253638697410E-02              0.253791534677120E-02
             -0.258202067271434E-02              0.274938992739821E-02              0.408178316602234E-02

     Writing output data file calc.save
 
     init_run     :    124.82s CPU    125.56s WALL (       1 calls)
     electrons    : 268536.63s CPU 270967.05s WALL (      29 calls)
     update_pot   :    188.55s CPU    191.79s WALL (      28 calls)
     forces       :   2437.43s CPU   2444.81s WALL (      29 calls)

     Called by init_run:
     wfcinit      :     97.47s CPU     97.93s WALL (       1 calls)
     potinit      :      2.58s CPU      2.63s WALL (       1 calls)

     Called by electrons:
     c_bands      : 191314.10s CPU 192924.29s WALL (     974 calls)
     sum_band     :  42094.60s CPU  42242.84s WALL (     974 calls)
     v_of_rho     :    394.60s CPU    421.41s WALL (    1003 calls)
     newd         :  21158.55s CPU  21215.07s WALL (    1003 calls)
     mix_rho      :  14153.59s CPU  14638.29s WALL (     974 calls)

     Called by c_bands:
     init_us_2    :    566.37s CPU    573.32s WALL (   19780 calls)
     cegterg      : 186415.46s CPU 188013.70s WALL (    9740 calls)

     Called by *egterg:
     h_psi        : 110279.62s CPU 110608.10s WALL (   33825 calls)
     s_psi        :  14100.63s CPU  14118.88s WALL (   33825 calls)
     g_psi        :    303.38s CPU    303.86s WALL (   24075 calls)
     cdiaghg      :  18103.81s CPU  18119.42s WALL (   33535 calls)

     Called by h_psi:
     add_vuspsi   :  13998.35s CPU  14018.14s WALL (   33825 calls)

     General routines
     calbec       :  21199.44s CPU  21264.57s WALL (   43855 calls)
     fft          :   1931.91s CPU   1969.31s WALL (   16279 calls)
     ffts         :   6583.36s CPU   7047.74s WALL ( 1249466 calls)
     fftw         :  80617.35s CPU  80879.48s WALL (18792268 calls)
     interpolate  :     64.43s CPU     68.67s WALL (    1977 calls)
     davcio       :      0.02s CPU      3.24s WALL (      10 calls)
 
     Parallel routines
     fft_scatter  :  36205.80s CPU  36740.43s WALL (20058013 calls)
 
     PWSCF        :     3d    3h31m CPU        3d    4h12m WALL

 
   This run was terminated on:   2:36:33  10Apr2019            

=------------------------------------------------------------------------------=
   JOB DONE.
=------------------------------------------------------------------------------=
  python dir          : /gpfs/pace1/project/chbe-medford/medford-share/gits/frozen/ben_espresso_8_24_2017/espresso
  espresso dir        : /nv/hp22/amedford6/medford-shared/builds/espresso/5.1.r11289-pybeef/intel-16.0+mvapich2-2.2+mkl-11.3/espresso-5.1.r11289-pybeef/bin
  pseudo dir          : /gpfs/pace1/project/chbe-medford/medford-share/data/pseudos/SSSP_eff_PBE
  ase-espresso py git : GITVERSION



     Program PWSCF v.5.1rc2 starts on 15Apr2019 at 23:51:41 

     This program is part of the open-source Quantum ESPRESSO suite
     for quantum simulation of materials; please cite
         "P. Giannozzi et al., J. Phys.:Condens. Matter 21 395502 (2009);
          URL http://www.quantum-espresso.org", 
     in publications or presentations arising from this work. More details at
     http://www.quantum-espresso.org/quote

     Parallel version (MPI), running on    12 processors
     R & G space division:  proc/nbgrp/npool/nimage =      12
     Reading input from pw.inp
     Message from routine read_cards :
     DEPRECATED: no units specified in CELL_PARAMETERS card

     Current dimensions of program PWSCF are:
     Max number of different atomic species (ntypx) = 10
     Max number of k-points (npk) =  40000
     Max angular momentum in pseudopotentials (lmaxx) =  3

     IMPORTANT: XC functional enforced from input :
     Exchange-correlation      = PBE ( 1  4  3  4 0)
     Any further DFT definition will be discarded
     Please, verify this is what you really want


     Subspace diagonalization in iterative solution of the eigenvalue problem:
     a serial algorithm will be used

 
     Parallelization info
     --------------------
     sticks:   dense  smooth     PW     G-vecs:    dense   smooth      PW
     Min         706     346     91               151854    51870    7071
     Max         707     347     92               151869    51929    7082
     Sum        8479    4153   1099              1822335   622653   84925
 


     bravais-lattice index     =            0
     lattice parameter (alat)  =       1.8897  a.u.
     unit-cell volume          =   17941.7315 (a.u.)^3
     number of atoms/cell      =           56
     number of atomic types    =            4
     number of electrons       =       690.00
     number of Kohn-Sham states=          355
     kinetic-energy cutoff     =      40.4243  Ry
     charge density cutoff     =     330.7439  Ry
     convergence threshold     =      3.7E-07
     mixing beta               =       0.1500
     number of iterations used =            8  local-TF  mixing
     Exchange-correlation      = PBE ( 1  4  3  4 0)
     nstep                     =           50


     celldm(1)=   1.889726  celldm(2)=   0.000000  celldm(3)=   0.000000
     celldm(4)=   0.000000  celldm(5)=   0.000000  celldm(6)=   0.000000

     crystal axes: (cart. coord. in units of alat)
               a(1) = (  10.224481   0.000000   0.000000 )  
               a(2) = (  -5.112241   8.854660   0.000000 )  
               a(3) = (   0.000000   0.000000  29.366660 )  

     reciprocal axes: (cart. coord. in units 2 pi/alat)
               b(1) = (  0.097804  0.056467  0.000000 )  
               b(2) = (  0.000000  0.112935  0.000000 )  
               b(3) = (  0.000000  0.000000  0.034052 )  


     PseudoPot. # 1 for Cu read from file:
     /gpfs/pace1/project/chbe-medford/medford-share/data/pseudos/SSSP_eff_PBE/Cu.UPF
     MD5 check sum: 6e991ff952a84172a2a52a1c1e996048
     Pseudo is Ultrasoft + core correction, Zval = 19.0
     Generated by new atomic code, or converted to UPF format
     Using radial grid of  867 points,  6 beta functions with: 
                l(1) =   0
                l(2) =   0
                l(3) =   1
                l(4) =   1
                l(5) =   2
                l(6) =   2
     Q(r) pseudized with  8 coefficients,  rinner =    1.150   1.150   1.150
                                                       1.150   1.150

     PseudoPot. # 2 for O  read from file:
     /gpfs/pace1/project/chbe-medford/medford-share/data/pseudos/SSSP_eff_PBE/O.UPF
     MD5 check sum: 734c27235a0248c51dbae37a1fbe46ec
     Pseudo is Ultrasoft + core correction, Zval =  6.0
     Generated by new atomic code, or converted to UPF format
     Using radial grid of  737 points,  5 beta functions with: 
                l(1) =   0
                l(2) =   0
                l(3) =   1
                l(4) =   1
                l(5) =   2
     Q(r) pseudized with  8 coefficients,  rinner =    0.900   0.900   0.900
                                                       0.900   0.900

     PseudoPot. # 3 for C  read from file:
     /gpfs/pace1/project/chbe-medford/medford-share/data/pseudos/SSSP_eff_PBE/C.UPF
     MD5 check sum: d1aef80898a10debaa0f26306b886e00
     Pseudo is Ultrasoft + core correction, Zval =  4.0
     Generated by new atomic code, or converted to UPF format
     Using radial grid of  721 points,  4 beta functions with: 
                l(1) =   0
                l(2) =   0
                l(3) =   1
                l(4) =   1
     Q(r) pseudized with  8 coefficients,  rinner =    1.100   1.100   1.100


     PseudoPot. # 4 for  H read from file:
     /gpfs/pace1/project/chbe-medford/medford-share/data/pseudos/SSSP_eff_PBE/H.UPF
     MD5 check sum: 36633979392af7100e6f6632747262d3
     Pseudo is Ultrasoft, Zval =  1.0
     Generated using "atomic" code by A. Dal Corso  v.5.0.99 svn rev. 10869
     Using radial grid of  929 points,  2 beta functions with: 
                l(1) =   0
                l(2) =   0
     Q(r) pseudized with 0 coefficients 


     atomic species   valence    mass     pseudopotential
        Cu1           19.00    63.54600     Cu( 1.00)
        O1             6.00    15.99940     O ( 1.00)
        C1             4.00    12.01100     C ( 1.00)
        H1             1.00     1.00794      H( 1.00)

     No symmetry found



   Cartesian axes

     site n.     atom                  positions (alat units)
         1           Cu1 tau(   1) = (   0.0000000   0.0000000  10.0000000  )
         2           Cu1 tau(   2) = (   1.2780602   0.7378884  12.0870635  )
         3           Cu1 tau(   3) = (  -1.2780602   2.2136651  10.0000000  )
         4           Cu1 tau(   4) = (   0.0000000   2.9515535  12.0870635  )
         5           Cu1 tau(   5) = (  -2.5561203   4.4273302  10.0000000  )
         6           Cu1 tau(   6) = (  -1.2780602   5.1652186  12.0870635  )
         7           Cu1 tau(   7) = (  -3.8341805   6.6409954  10.0000000  )
         8           Cu1 tau(   8) = (  -2.5561203   7.3788837  12.0870635  )
         9           Cu1 tau(   9) = (   2.5561203   0.0000000  10.0000000  )
        10           Cu1 tau(  10) = (   3.8341805   0.7378884  12.0870635  )
        11           Cu1 tau(  11) = (   1.2780602   2.2136651  10.0000000  )
        12           Cu1 tau(  12) = (   2.5561203   2.9515535  12.0870635  )
        13           Cu1 tau(  13) = (   0.0000000   4.4273302  10.0000000  )
        14           Cu1 tau(  14) = (   1.2780602   5.1652186  12.0870635  )
        15           Cu1 tau(  15) = (  -1.2780602   6.6409954  10.0000000  )
        16           Cu1 tau(  16) = (   0.0000000   7.3788837  12.0870635  )
        17           Cu1 tau(  17) = (   5.1122406   0.0000000  10.0000000  )
        18           Cu1 tau(  18) = (   6.3903008   0.7378884  12.0870635  )
        19           Cu1 tau(  19) = (   3.8341805   2.2136651  10.0000000  )
        20           Cu1 tau(  20) = (   5.1122406   2.9515535  12.0870635  )
        21           Cu1 tau(  21) = (   2.5561203   4.4273302  10.0000000  )
        22           Cu1 tau(  22) = (   3.8341805   5.1652186  12.0870635  )
        23           Cu1 tau(  23) = (   1.2780602   6.6409954  10.0000000  )
        24           Cu1 tau(  24) = (   2.5561203   7.3788837  12.0870635  )
        25           Cu1 tau(  25) = (   7.6683609   0.0000000  10.0000000  )
        26           Cu1 tau(  26) = (   8.9464211   0.7378884  12.0870635  )
        27           Cu1 tau(  27) = (   6.3903008   2.2136651  10.0000000  )
        28           Cu1 tau(  28) = (   7.6683609   2.9515535  12.0870635  )
        29           Cu1 tau(  29) = (   5.1122406   4.4273302  10.0000000  )
        30           Cu1 tau(  30) = (   6.3903008   5.1652186  12.0870635  )
        31           Cu1 tau(  31) = (   3.8341805   6.6409954  10.0000000  )
        32           Cu1 tau(  32) = (   5.1122406   7.3788837  12.0870635  )
        33           O1  tau(  33) = (   4.2025010   2.2554349  18.9902706  )
        34           O1  tau(  34) = (   4.3038042   4.8143591  18.0159967  )
        35           O1  tau(  35) = (   1.9190346   0.7715535  18.7962150  )
        36           O1  tau(  36) = (   1.4573764   5.0205794  17.4298449  )
        37           O1  tau(  37) = (   2.7404616   1.2759221  15.3772455  )
        38           O1  tau(  38) = (   4.0428304   5.1834903  14.9286038  )
        39           O1  tau(  39) = (  -1.2958036   8.7029815  16.8057804  )
        40           O1  tau(  40) = (   2.6430897   6.8064051  15.7057416  )
        41           C1  tau(  41) = (   3.0687151   2.7532429  18.2919125  )
        42           C1  tau(  42) = (   3.5376000   3.8301824  17.2994413  )
        43           C1  tau(  43) = (   2.2946512   1.5644831  17.6870530  )
        44           C1  tau(  44) = (   2.4185774   4.5271078  16.5164712  )
        45           C1  tau(  45) = (   3.0703630   0.7812285  16.6171585  )
        46           C1  tau(  46) = (   3.0306955   5.6522026  15.6887036  )
        47           H1  tau(  47) = (   2.3418923   3.2110504  18.9933235  )
        48           H1  tau(  48) = (   4.2361016   3.3981168  16.5742436  )
        49           H1  tau(  49) = (   1.4073992   1.9668841  17.1586191  )
        50           H1  tau(  50) = (   1.9696878   3.8083919  15.8003080  )
        51           H1  tau(  51) = (   4.7340114   3.0465785  19.1944807  )
        52           H1  tau(  52) = (   3.6549663   5.3728634  18.4838290  )
        53           H1  tau(  53) = (  -3.5984720   8.7988231  18.4753774  )
        54           H1  tau(  54) = (   1.0310999   5.8034070  17.0460276  )
        55           H1  tau(  55) = (   3.2231981   0.7624256  14.6937480  )
        56           H1  tau(  56) = (   4.4066321   5.9028267  14.3666100  )

     number of k points=    10  Fermi-Dirac smearing, width (Ry)=  0.0073
                       cart. coord. in units 2pi/alat
        k(    1) = (   0.0000000   0.0000000   0.0000000), wk =   0.1250000
        k(    2) = (   0.0000000   0.0282337   0.0000000), wk =   0.2500000
        k(    3) = (   0.0000000  -0.0564674   0.0000000), wk =   0.1250000
        k(    4) = (   0.0244511   0.0423506   0.0000000), wk =   0.2500000
        k(    5) = (  -0.0244511   0.0141169   0.0000000), wk =   0.2500000
        k(    6) = (   0.0244511   0.0141169   0.0000000), wk =   0.2500000
        k(    7) = (   0.0489022  -0.0282337   0.0000000), wk =   0.1250000
        k(    8) = (  -0.0489022  -0.0282337   0.0000000), wk =   0.1250000
        k(    9) = (  -0.0244511   0.0423506   0.0000000), wk =   0.2500000
        k(   10) = (   0.0489022  -0.0000000   0.0000000), wk =   0.2500000

     Dense  grid:  1822335 G-vectors     FFT dimensions: ( 120, 120, 324)

     Smooth grid:   622653 G-vectors     FFT dimensions: (  80,  80, 225)

     Largest allocated arrays     est. size (Mb)     dimensions
        Kohn-Sham Wavefunctions        35.45 Mb     (    6545,  355)
        NL pseudopotentials            74.70 Mb     (    6545,  748)
        Each V/rho on FFT grid          5.93 Mb     (  388800)
        Each G-vector array             1.16 Mb     (  151858)
        G-vector shells                 0.38 Mb     (   49240)
     Largest temporary arrays     est. size (Mb)     dimensions
        Auxiliary wavefunctions       141.81 Mb     (    6545, 1420)
        Each subspace H/S matrix       30.77 Mb     (    1420, 1420)
        Each <psi_i|beta_j> matrix      4.05 Mb     (     748,  355)
        Arrays for rho mixing          47.46 Mb     (  388800,    8)

     Initial potential from superposition of free atoms
     Check: negative starting charge=   -0.009648

     starting charge  657.99959, renormalised to  690.00000

     negative rho (up, down):  1.012E-02 0.000E+00
     Starting wfc are  482 randomized atomic wfcs

     total cpu time spent up to now is      607.4 secs

     per-process dynamical memory:   597.3 Mb

     Self-consistent Calculation

     iteration #  1     ecut=    40.42 Ry     beta=0.15
     Davidson diagonalization with overlap
     ethr =  1.00E-02,  avg # of iterations =  5.1

     negative rho (up, down):  3.137E-01 0.000E+00

     total cpu time spent up to now is     2671.4 secs

     total energy              =  -13324.70007284 Ry
     Harris-Foulkes estimate   =  -13354.40707237 Ry
     estimated scf accuracy    <    1876.25164812 Ry

     iteration #  2     ecut=    40.42 Ry     beta=0.15
     Davidson diagonalization with overlap
