  python dir          : /gpfs/pace1/project/chbe-medford/medford-share/gits/frozen/ben_espresso_8_24_2017/espresso
  espresso dir        : /nv/hp22/amedford6/medford-shared/builds/espresso/5.1.r11289-pybeef/intel-16.0+mvapich2-2.2+mkl-11.3/espresso-5.1.r11289-pybeef/bin
  pseudo dir          : /gpfs/pace1/project/chbe-medford/medford-share/data/pseudos/SSSP_eff_PBE
  ase-espresso py git : GITVERSION



     Program PWSCF v.5.1rc2 starts on  9Feb2019 at 22:49:21 

     This program is part of the open-source Quantum ESPRESSO suite
     for quantum simulation of materials; please cite
         "P. Giannozzi et al., J. Phys.:Condens. Matter 21 395502 (2009);
          URL http://www.quantum-espresso.org", 
     in publications or presentations arising from this work. More details at
     http://www.quantum-espresso.org/quote

     Parallel version (MPI), running on    12 processors
     R & G space division:  proc/nbgrp/npool/nimage =      12
     Reading input from pw.inp
     Message from routine read_cards :
     DEPRECATED: no units specified in CELL_PARAMETERS card

     Current dimensions of program PWSCF are:
     Max number of different atomic species (ntypx) = 10
     Max number of k-points (npk) =  40000
     Max angular momentum in pseudopotentials (lmaxx) =  3

     IMPORTANT: XC functional enforced from input :
     Exchange-correlation      = PBE ( 1  4  3  4 0)
     Any further DFT definition will be discarded
     Please, verify this is what you really want


     Subspace diagonalization in iterative solution of the eigenvalue problem:
     a serial algorithm will be used

 
     Parallelization info
     --------------------
     sticks:   dense  smooth     PW     G-vecs:    dense   smooth      PW
     Min         835     410    107               183380    62676    8487
     Max         837     411    108               183387    62715    8502
     Sum       10033    4927   1285              2200589   752313  101867
 


     bravais-lattice index     =            0
     lattice parameter (alat)  =       1.8897  a.u.
     unit-cell volume          =   21663.5353 (a.u.)^3
     number of atoms/cell      =           47
     number of atomic types    =            4
     number of electrons       =       562.00
     number of Kohn-Sham states=          291
     kinetic-energy cutoff     =      40.4243  Ry
     charge density cutoff     =     330.7439  Ry
     convergence threshold     =      7.3E-07
     mixing beta               =       0.2000
     number of iterations used =            8  local-TF  mixing
     Exchange-correlation      = PBE ( 1  4  3  4 0)
     nstep                     =           50


     celldm(1)=   1.889726  celldm(2)=   0.000000  celldm(3)=   0.000000
     celldm(4)=   0.000000  celldm(5)=   0.000000  celldm(6)=   0.000000

     crystal axes: (cart. coord. in units of alat)
               a(1) = (  11.099314   0.000000   0.000000 )  
               a(2) = (  -5.549657   9.612288   0.000000 )  
               a(3) = (   0.000000   0.000000  30.089145 )  

     reciprocal axes: (cart. coord. in units 2 pi/alat)
               b(1) = (  0.090096  0.052017  0.000000 )  
               b(2) = (  0.000000  0.104034  0.000000 )  
               b(3) = (  0.000000  0.000000  0.033235 )  


     PseudoPot. # 1 for Pt read from file:
     /gpfs/pace1/project/chbe-medford/medford-share/data/pseudos/SSSP_eff_PBE/Pt.UPF
     MD5 check sum: f09d6de1a584b5a045c4fc126da2d0c4
     Pseudo is Ultrasoft + core correction, Zval = 16.0
     Generated by new atomic code, or converted to UPF format
     Using radial grid of  985 points,  6 beta functions with: 
                l(1) =   0
                l(2) =   0
                l(3) =   1
                l(4) =   1
                l(5) =   2
                l(6) =   2
     Q(r) pseudized with  8 coefficients,  rinner =    1.300   1.300   1.300
                                                       1.300   1.300

     PseudoPot. # 2 for O  read from file:
     /gpfs/pace1/project/chbe-medford/medford-share/data/pseudos/SSSP_eff_PBE/O.UPF
     MD5 check sum: 734c27235a0248c51dbae37a1fbe46ec
     Pseudo is Ultrasoft + core correction, Zval =  6.0
     Generated by new atomic code, or converted to UPF format
     Using radial grid of  737 points,  5 beta functions with: 
                l(1) =   0
                l(2) =   0
                l(3) =   1
                l(4) =   1
                l(5) =   2
     Q(r) pseudized with  8 coefficients,  rinner =    0.900   0.900   0.900
                                                       0.900   0.900

     PseudoPot. # 3 for C  read from file:
     /gpfs/pace1/project/chbe-medford/medford-share/data/pseudos/SSSP_eff_PBE/C.UPF
     MD5 check sum: d1aef80898a10debaa0f26306b886e00
     Pseudo is Ultrasoft + core correction, Zval =  4.0
     Generated by new atomic code, or converted to UPF format
     Using radial grid of  721 points,  4 beta functions with: 
                l(1) =   0
                l(2) =   0
                l(3) =   1
                l(4) =   1
     Q(r) pseudized with  8 coefficients,  rinner =    1.100   1.100   1.100


     PseudoPot. # 4 for  H read from file:
     /gpfs/pace1/project/chbe-medford/medford-share/data/pseudos/SSSP_eff_PBE/H.UPF
     MD5 check sum: 36633979392af7100e6f6632747262d3
     Pseudo is Ultrasoft, Zval =  1.0
     Generated using "atomic" code by A. Dal Corso  v.5.0.99 svn rev. 10869
     Using radial grid of  929 points,  2 beta functions with: 
                l(1) =   0
                l(2) =   0
     Q(r) pseudized with 0 coefficients 


     atomic species   valence    mass     pseudopotential
        Pt1           16.00   195.08000     Pt( 1.00)
        O1             6.00    15.99940     O ( 1.00)
        C1             4.00    12.01100     C ( 1.00)
        H1             1.00     1.00794      H( 1.00)

     No symmetry found



   Cartesian axes

     site n.     atom                  positions (alat units)
         1           Pt1 tau(   1) = (   0.0000000   0.0000000  10.0000000  )
         2           Pt1 tau(   2) = (   1.3874142   0.8010240  12.2656379  )
         3           Pt1 tau(   3) = (  -1.3874142   2.4030719  10.0000000  )
         4           Pt1 tau(   4) = (   0.0000000   3.2040959  12.2656379  )
         5           Pt1 tau(   5) = (  -2.7748284   4.8061438  10.0000000  )
         6           Pt1 tau(   6) = (  -1.3874142   5.6071678  12.2656379  )
         7           Pt1 tau(   7) = (  -4.1622426   7.2092157  10.0000000  )
         8           Pt1 tau(   8) = (  -2.7748284   8.0102397  12.2656379  )
         9           Pt1 tau(   9) = (   2.7748284   0.0000000  10.0000000  )
        10           Pt1 tau(  10) = (   4.1622426   0.8010240  12.2656379  )
        11           Pt1 tau(  11) = (   1.3874142   2.4030719  10.0000000  )
        12           Pt1 tau(  12) = (   2.7748284   3.2040959  12.2656379  )
        13           Pt1 tau(  13) = (   0.0000000   4.8061438  10.0000000  )
        14           Pt1 tau(  14) = (   1.3874142   5.6071678  12.2656379  )
        15           Pt1 tau(  15) = (  -1.3874142   7.2092157  10.0000000  )
        16           Pt1 tau(  16) = (   0.0000000   8.0102397  12.2656379  )
        17           Pt1 tau(  17) = (   5.5496569   0.0000000  10.0000000  )
        18           Pt1 tau(  18) = (   6.9370711   0.8010240  12.2656379  )
        19           Pt1 tau(  19) = (   4.1622426   2.4030719  10.0000000  )
        20           Pt1 tau(  20) = (   5.5496569   3.2040959  12.2656379  )
        21           Pt1 tau(  21) = (   2.7748284   4.8061438  10.0000000  )
        22           Pt1 tau(  22) = (   4.1622426   5.6071678  12.2656379  )
        23           Pt1 tau(  23) = (   1.3874142   7.2092157  10.0000000  )
        24           Pt1 tau(  24) = (   2.7748284   8.0102397  12.2656379  )
        25           Pt1 tau(  25) = (   8.3244853   0.0000000  10.0000000  )
        26           Pt1 tau(  26) = (   9.7118995   0.8010240  12.2656379  )
        27           Pt1 tau(  27) = (   6.9370711   2.4030719  10.0000000  )
        28           Pt1 tau(  28) = (   8.3244853   3.2040959  12.2656379  )
        29           Pt1 tau(  29) = (   5.5496569   4.8061438  10.0000000  )
        30           Pt1 tau(  30) = (   6.9370711   5.6071678  12.2656379  )
        31           Pt1 tau(  31) = (   4.1622426   7.2092157  10.0000000  )
        32           Pt1 tau(  32) = (   5.5496569   8.0102397  12.2656379  )
        33           O1  tau(  33) = (   2.7750000   4.8060000  14.7656379  )
        34           O1  tau(  34) = (   4.7880351   6.0855000  18.3409170  )
        35           O1  tau(  35) = (   1.9542300   4.4531000  16.8578225  )
        36           O1  tau(  36) = (   4.8542155   4.6389000  20.0891449  )
        37           C1  tau(  37) = (   4.3436743   4.1891000  16.4044615  )
        38           C1  tau(  38) = (   4.5112348   3.8136000  17.8502848  )
        39           C1  tau(  39) = (   2.8954576   4.4797000  16.0790766  )
        40           C1  tau(  40) = (   4.7330857   4.8506000  18.8921418  )
        41           C1  tau(  41) = (   4.4391491   2.5408000  18.2690287  )
        42           H1  tau(  42) = (   4.9572465   5.0573000  16.1433998  )
        43           H1  tau(  43) = (   4.6677627   3.3580000  15.7653992  )
        44           H1  tau(  44) = (   4.2650862   1.7342000  17.5635430  )
        45           H1  tau(  45) = (   4.5475197   2.2586000  19.3109320  )
        46           H1  tau(  46) = (   1.8465546   5.0097000  14.5235234  )
        47           H1  tau(  47) = (   4.9349563   6.7827000  19.0151921  )

     number of k points=     4  Fermi-Dirac smearing, width (Ry)=  0.0073
                       cart. coord. in units 2pi/alat
        k(    1) = (   0.0000000   0.0000000   0.0000000), wk =   0.5000000
        k(    2) = (   0.0000000  -0.0520168   0.0000000), wk =   0.5000000
        k(    3) = (   0.0450478  -0.0260084   0.0000000), wk =   0.5000000
        k(    4) = (  -0.0450478  -0.0260084   0.0000000), wk =   0.5000000

     Dense  grid:  2200589 G-vectors     FFT dimensions: ( 125, 125, 360)

     Smooth grid:   752313 G-vectors     FFT dimensions: (  90,  90, 240)

     Largest allocated arrays     est. size (Mb)     dimensions
        Kohn-Sham Wavefunctions        34.99 Mb     (    7879,  291)
        NL pseudopotentials            81.75 Mb     (    7879,  680)
        Each V/rho on FFT grid          7.15 Mb     (  468750)
        Each G-vector array             1.40 Mb     (  183381)
        G-vector shells                 0.43 Mb     (   57008)
     Largest temporary arrays     est. size (Mb)     dimensions
        Auxiliary wavefunctions       139.94 Mb     (    7879, 1164)
        Each subspace H/S matrix       20.67 Mb     (    1164, 1164)
        Each <psi_i|beta_j> matrix      3.02 Mb     (     680,  291)
        Arrays for rho mixing          57.22 Mb     (  468750,    8)

     Initial potential from superposition of free atoms
     Check: negative starting charge=   -5.894127

     starting charge  545.99937, renormalised to  562.00000

     negative rho (up, down):  6.067E+00 0.000E+00
     Starting wfc are  426 randomized atomic wfcs

     total cpu time spent up to now is       66.0 secs

     per-process dynamical memory:   408.6 Mb

     Self-consistent Calculation

     iteration #  1     ecut=    40.42 Ry     beta=0.20
     Davidson diagonalization with overlap
     ethr =  1.00E-02,  avg # of iterations =  2.0

     negative rho (up, down):  5.984E+00 0.000E+00

     total cpu time spent up to now is      179.1 secs

     total energy              =   -6940.70150953 Ry
     Harris-Foulkes estimate   =   -6945.68764396 Ry
     estimated scf accuracy    <      97.13234529 Ry

     iteration #  2     ecut=    40.42 Ry     beta=0.20
     Davidson diagonalization with overlap
     ethr =  1.00E-02,  avg # of iterations =  1.0

     negative rho (up, down):  5.870E+00 0.000E+00

     total cpu time spent up to now is      271.2 secs

     total energy              =   -6928.12707006 Ry
     Harris-Foulkes estimate   =   -6941.08503134 Ry
     estimated scf accuracy    <      67.49180141 Ry

     iteration #  3     ecut=    40.42 Ry     beta=0.20
     Davidson diagonalization with overlap
     ethr =  1.00E-02,  avg # of iterations =  6.0

     negative rho (up, down):  5.941E+00 0.000E+00

     total cpu time spent up to now is      383.0 secs

     total energy              =   -6934.76865949 Ry
     Harris-Foulkes estimate   =   -6935.75883109 Ry
     estimated scf accuracy    <       9.49821720 Ry

     iteration #  4     ecut=    40.42 Ry     beta=0.20
     Davidson diagonalization with overlap
     ethr =  1.69E-03,  avg # of iterations =  2.5

     negative rho (up, down):  6.003E+00 0.000E+00

     total cpu time spent up to now is      476.5 secs

     total energy              =   -6934.56290982 Ry
     Harris-Foulkes estimate   =   -6935.24450429 Ry
     estimated scf accuracy    <       3.56488295 Ry

     iteration #  5     ecut=    40.42 Ry     beta=0.20
     Davidson diagonalization with overlap
     ethr =  6.34E-04,  avg # of iterations =  6.2

     negative rho (up, down):  6.036E+00 0.000E+00

     total cpu time spent up to now is      587.4 secs

     total energy              =   -6934.95543434 Ry
     Harris-Foulkes estimate   =   -6935.25642329 Ry
     estimated scf accuracy    <      19.01292990 Ry

     iteration #  6     ecut=    40.42 Ry     beta=0.20
     Davidson diagonalization with overlap
     ethr =  6.34E-04,  avg # of iterations =  1.0

     negative rho (up, down):  6.096E+00 0.000E+00

     total cpu time spent up to now is      680.2 secs

     total energy              =   -6934.67604895 Ry
     Harris-Foulkes estimate   =   -6935.00390687 Ry
     estimated scf accuracy    <      17.81822112 Ry

     iteration #  7     ecut=    40.42 Ry     beta=0.20
     Davidson diagonalization with overlap
     ethr =  6.34E-04,  avg # of iterations =  1.0

     negative rho (up, down):  6.110E+00 0.000E+00

     total cpu time spent up to now is      771.9 secs

     total energy              =   -6934.58850492 Ry
     Harris-Foulkes estimate   =   -6934.73649366 Ry
     estimated scf accuracy    <      12.21457808 Ry

     iteration #  8     ecut=    40.42 Ry     beta=0.20
     Davidson diagonalization with overlap
     ethr =  6.34E-04,  avg # of iterations =  1.0

     negative rho (up, down):  6.110E+00 0.000E+00

     total cpu time spent up to now is      863.3 secs

     total energy              =   -6934.60970731 Ry
     Harris-Foulkes estimate   =   -6934.61185250 Ry
     estimated scf accuracy    <       8.67511568 Ry

     iteration #  9     ecut=    40.42 Ry     beta=0.20
     Davidson diagonalization with overlap
     ethr =  6.34E-04,  avg # of iterations =  1.0

     negative rho (up, down):  6.115E+00 0.000E+00

     total cpu time spent up to now is      954.9 secs

     total energy              =   -6934.64334099 Ry
     Harris-Foulkes estimate   =   -6934.61368943 Ry
     estimated scf accuracy    <       8.48463682 Ry

     iteration # 10     ecut=    40.42 Ry     beta=0.20
     Davidson diagonalization with overlap
     ethr =  6.34E-04,  avg # of iterations =  1.0

     negative rho (up, down):  6.183E+00 0.000E+00

     total cpu time spent up to now is     1046.1 secs

     total energy              =   -6934.23865858 Ry
     Harris-Foulkes estimate   =   -6934.65573703 Ry
     estimated scf accuracy    <       8.48508560 Ry

     iteration # 11     ecut=    40.42 Ry     beta=0.20
     Davidson diagonalization with overlap
     ethr =  6.34E-04,  avg # of iterations =  5.8

     negative rho (up, down):  6.173E+00 0.000E+00

     total cpu time spent up to now is     1149.2 secs

     total energy              =   -6934.53146920 Ry
     Harris-Foulkes estimate   =   -6934.67421029 Ry
     estimated scf accuracy    <       0.71924590 Ry

     iteration # 12     ecut=    40.42 Ry     beta=0.20
     Davidson diagonalization with overlap
     ethr =  1.28E-04,  avg # of iterations =  3.0

     negative rho (up, down):  6.145E+00 0.000E+00

     total cpu time spent up to now is     1243.7 secs

     total energy              =   -6934.56030623 Ry
     Harris-Foulkes estimate   =   -6934.56619445 Ry
     estimated scf accuracy    <       0.52377562 Ry

     iteration # 13     ecut=    40.42 Ry     beta=0.20
     Davidson diagonalization with overlap
     ethr =  9.32E-05,  avg # of iterations =  1.0

     negative rho (up, down):  5.877E+00 0.000E+00

     total cpu time spent up to now is     1335.7 secs

     total energy              =   -6934.55809366 Ry
     Harris-Foulkes estimate   =   -6934.56312591 Ry
     estimated scf accuracy    <       0.56219763 Ry

     iteration # 14     ecut=    40.42 Ry     beta=0.20
     Davidson diagonalization with overlap
     ethr =  9.32E-05,  avg # of iterations =  6.2

     negative rho (up, down):  5.856E+00 0.000E+00

     total cpu time spent up to now is     1440.4 secs

     total energy              =   -6934.70299556 Ry
     Harris-Foulkes estimate   =   -6934.70102683 Ry
     estimated scf accuracy    <       9.01259831 Ry

     iteration # 15     ecut=    40.42 Ry     beta=0.20
     Davidson diagonalization with overlap
     ethr =  9.32E-05,  avg # of iterations =  1.0

     negative rho (up, down):  5.885E+00 0.000E+00

     total cpu time spent up to now is     1532.7 secs

     total energy              =   -6934.59801705 Ry
     Harris-Foulkes estimate   =   -6934.70492152 Ry
     estimated scf accuracy    <       8.72632885 Ry

     iteration # 16     ecut=    40.42 Ry     beta=0.20
     Davidson diagonalization with overlap
     ethr =  9.32E-05,  avg # of iterations =  6.2

     negative rho (up, down):  5.878E+00 0.000E+00

     total cpu time spent up to now is     1632.0 secs

     total energy              =   -6934.53852048 Ry
     Harris-Foulkes estimate   =   -6934.60719285 Ry
     estimated scf accuracy    <       5.67772994 Ry

     iteration # 17     ecut=    40.42 Ry     beta=0.20
     Davidson diagonalization with overlap
     ethr =  9.32E-05,  avg # of iterations =  3.8

     negative rho (up, down):  5.912E+00 0.000E+00

     total cpu time spent up to now is     1726.3 secs

     total energy              =   -6934.34674086 Ry
     Harris-Foulkes estimate   =   -6934.56223998 Ry
     estimated scf accuracy    <       3.38597395 Ry

     iteration # 18     ecut=    40.42 Ry     beta=0.20
     Davidson diagonalization with overlap
     ethr =  9.32E-05,  avg # of iterations =  6.0

     negative rho (up, down):  5.913E+00 0.000E+00

     total cpu time spent up to now is     1846.4 secs

     total energy              =   -6934.47588430 Ry
     Harris-Foulkes estimate   =   -6934.48649895 Ry
     estimated scf accuracy    <       0.14278037 Ry

     iteration # 19     ecut=    40.42 Ry     beta=0.20
     Davidson diagonalization with overlap
     ethr =  2.54E-05,  avg # of iterations =  1.0

     negative rho (up, down):  5.820E+00 0.000E+00

     total cpu time spent up to now is     1941.2 secs

     total energy              =   -6934.45645405 Ry
     Harris-Foulkes estimate   =   -6934.47779070 Ry
     estimated scf accuracy    <       0.09955332 Ry

     iteration # 20     ecut=    40.42 Ry     beta=0.20
     Davidson diagonalization with overlap
     ethr =  1.77E-05,  avg # of iterations =  3.8

     negative rho (up, down):  5.772E+00 0.000E+00

     total cpu time spent up to now is     2041.0 secs

     total energy              =   -6934.46758413 Ry
     Harris-Foulkes estimate   =   -6934.46534362 Ry
     estimated scf accuracy    <       0.08091251 Ry

     iteration # 21     ecut=    40.42 Ry     beta=0.20
     Davidson diagonalization with overlap
     ethr =  1.44E-05,  avg # of iterations =  2.8

     negative rho (up, down):  5.774E+00 0.000E+00

     total cpu time spent up to now is     2137.8 secs

     total energy              =   -6934.47823604 Ry
     Harris-Foulkes estimate   =   -6934.47719491 Ry
     estimated scf accuracy    <       0.86314446 Ry

     iteration # 22     ecut=    40.42 Ry     beta=0.20
     Davidson diagonalization with overlap
     ethr =  1.44E-05,  avg # of iterations =  1.0

     negative rho (up, down):  5.777E+00 0.000E+00

     total cpu time spent up to now is     2230.2 secs

     total energy              =   -6934.47889992 Ry
     Harris-Foulkes estimate   =   -6934.47852877 Ry
     estimated scf accuracy    <       0.83445400 Ry

     iteration # 23     ecut=    40.42 Ry     beta=0.20
     Davidson diagonalization with overlap
     ethr =  1.44E-05,  avg # of iterations =  3.0

     negative rho (up, down):  5.770E+00 0.000E+00

     total cpu time spent up to now is     2327.7 secs

     total energy              =   -6934.48741789 Ry
     Harris-Foulkes estimate   =   -6934.48197468 Ry
     estimated scf accuracy    <       0.37074210 Ry

     iteration # 24     ecut=    40.42 Ry     beta=0.20
     Davidson diagonalization with overlap
     ethr =  1.44E-05,  avg # of iterations =  1.0

     negative rho (up, down):  5.838E+00 0.000E+00

     total cpu time spent up to now is     2419.5 secs

     total energy              =   -6934.44529055 Ry
     Harris-Foulkes estimate   =   -6934.48774592 Ry
     estimated scf accuracy    <       0.47312753 Ry

     iteration # 25     ecut=    40.42 Ry     beta=0.20
     Davidson diagonalization with overlap
     ethr =  1.44E-05,  avg # of iterations =  4.0

     negative rho (up, down):  5.859E+00 0.000E+00

     total cpu time spent up to now is     2520.2 secs

     total energy              =   -6934.45412111 Ry
     Harris-Foulkes estimate   =   -6934.45974207 Ry
     estimated scf accuracy    <       0.04130862 Ry

     iteration # 26     ecut=    40.42 Ry     beta=0.20
     Davidson diagonalization with overlap
     c_bands:  2 eigenvalues not converged
     ethr =  7.35E-06,  avg # of iterations =  8.2

     negative rho (up, down):  5.784E+00 0.000E+00

     total cpu time spent up to now is     2628.1 secs

     total energy              =   -6934.45016885 Ry
     Harris-Foulkes estimate   =   -6934.45756681 Ry
     estimated scf accuracy    <       0.02235888 Ry

     iteration # 27     ecut=    40.42 Ry     beta=0.20
     Davidson diagonalization with overlap
     ethr =  3.98E-06,  avg # of iterations =  5.5

     negative rho (up, down):  5.775E+00 0.000E+00

     total cpu time spent up to now is     2730.9 secs

     total energy              =   -6934.44737912 Ry
     Harris-Foulkes estimate   =   -6934.45252535 Ry
     estimated scf accuracy    <       0.02814060 Ry

     iteration # 28     ecut=    40.42 Ry     beta=0.20
     Davidson diagonalization with overlap
     ethr =  3.98E-06,  avg # of iterations =  4.8

     negative rho (up, down):  5.737E+00 0.000E+00

     total cpu time spent up to now is     2832.7 secs

     total energy              =   -6934.44563390 Ry
     Harris-Foulkes estimate   =   -6934.44955551 Ry
     estimated scf accuracy    <       0.01331269 Ry

     iteration # 29     ecut=    40.42 Ry     beta=0.20
     Davidson diagonalization with overlap
     ethr =  2.37E-06,  avg # of iterations =  3.8

     negative rho (up, down):  5.730E+00 0.000E+00

     total cpu time spent up to now is     2933.6 secs

     total energy              =   -6934.44585417 Ry
     Harris-Foulkes estimate   =   -6934.44662607 Ry
     estimated scf accuracy    <       0.00760644 Ry

     iteration # 30     ecut=    40.42 Ry     beta=0.20
     Davidson diagonalization with overlap
     ethr =  1.35E-06,  avg # of iterations =  3.0

     negative rho (up, down):  5.688E+00 0.000E+00

     total cpu time spent up to now is     3032.7 secs

     total energy              =   -6934.44466324 Ry
     Harris-Foulkes estimate   =   -6934.44613439 Ry
     estimated scf accuracy    <       0.00533717 Ry

     iteration # 31     ecut=    40.42 Ry     beta=0.20
     Davidson diagonalization with overlap
     ethr =  9.50E-07,  avg # of iterations =  2.0

     negative rho (up, down):  5.684E+00 0.000E+00

     total cpu time spent up to now is     3130.4 secs

     total energy              =   -6934.44453150 Ry
     Harris-Foulkes estimate   =   -6934.44478091 Ry
     estimated scf accuracy    <       0.00390623 Ry

     iteration # 32     ecut=    40.42 Ry     beta=0.20
     Davidson diagonalization with overlap
     ethr =  6.95E-07,  avg # of iterations =  1.0

     negative rho (up, down):  5.665E+00 0.000E+00

     total cpu time spent up to now is     3235.2 secs

     total energy              =   -6934.44380961 Ry
     Harris-Foulkes estimate   =   -6934.44454839 Ry
     estimated scf accuracy    <       0.00331919 Ry

     iteration # 33     ecut=    40.42 Ry     beta=0.20
     Davidson diagonalization with overlap
     ethr =  5.91E-07,  avg # of iterations =  3.0

     negative rho (up, down):  5.662E+00 0.000E+00

     total cpu time spent up to now is     3346.7 secs

     total energy              =   -6934.44364511 Ry
     Harris-Foulkes estimate   =   -6934.44388943 Ry
     estimated scf accuracy    <       0.00200516 Ry

     iteration # 34     ecut=    40.42 Ry     beta=0.20
     Davidson diagonalization with overlap
     ethr =  3.57E-07,  avg # of iterations =  8.8

     negative rho (up, down):  5.662E+00 0.000E+00

     total cpu time spent up to now is     3459.8 secs

     total energy              =   -6934.44371720 Ry
     Harris-Foulkes estimate   =   -6934.44377614 Ry
     estimated scf accuracy    <       0.00192989 Ry

     iteration # 35     ecut=    40.42 Ry     beta=0.20
     Davidson diagonalization with overlap
     ethr =  3.43E-07,  avg # of iterations =  1.0

     negative rho (up, down):  5.663E+00 0.000E+00

     total cpu time spent up to now is     3555.9 secs

     total energy              =   -6934.44373395 Ry
     Harris-Foulkes estimate   =   -6934.44373000 Ry
     estimated scf accuracy    <       0.00185951 Ry

     iteration # 36     ecut=    40.42 Ry     beta=0.20
     Davidson diagonalization with overlap
     ethr =  3.31E-07,  avg # of iterations =  1.0

     negative rho (up, down):  5.663E+00 0.000E+00

     total cpu time spent up to now is     3655.3 secs

     total energy              =   -6934.44365198 Ry
     Harris-Foulkes estimate   =   -6934.44374494 Ry
     estimated scf accuracy    <       0.00176338 Ry

     iteration # 37     ecut=    40.42 Ry     beta=0.20
     Davidson diagonalization with overlap
     ethr =  3.14E-07,  avg # of iterations =  1.2

     negative rho (up, down):  5.663E+00 0.000E+00

     total cpu time spent up to now is     3756.5 secs

     total energy              =   -6934.44367169 Ry
     Harris-Foulkes estimate   =   -6934.44366955 Ry
     estimated scf accuracy    <       0.00156734 Ry

     iteration # 38     ecut=    40.42 Ry     beta=0.20
     Davidson diagonalization with overlap
     ethr =  2.79E-07,  avg # of iterations =  1.0

     negative rho (up, down):  5.665E+00 0.000E+00

     total cpu time spent up to now is     3852.0 secs

     total energy              =   -6934.44375946 Ry
     Harris-Foulkes estimate   =   -6934.44367593 Ry
     estimated scf accuracy    <       0.00159561 Ry

     iteration # 39     ecut=    40.42 Ry     beta=0.20
     Davidson diagonalization with overlap
     ethr =  2.79E-07,  avg # of iterations =  2.0

     negative rho (up, down):  5.664E+00 0.000E+00

     total cpu time spent up to now is     3948.1 secs

     total energy              =   -6934.44364459 Ry
     Harris-Foulkes estimate   =   -6934.44377457 Ry
     estimated scf accuracy    <       0.00182794 Ry

     iteration # 40     ecut=    40.42 Ry     beta=0.20
     Davidson diagonalization with overlap
     ethr =  2.79E-07,  avg # of iterations =  2.0

     negative rho (up, down):  5.661E+00 0.000E+00

     total cpu time spent up to now is     4043.2 secs

     total energy              =   -6934.44354716 Ry
     Harris-Foulkes estimate   =   -6934.44367012 Ry
     estimated scf accuracy    <       0.00150615 Ry

     iteration # 41     ecut=    40.42 Ry     beta=0.20
     Davidson diagonalization with overlap
     ethr =  2.68E-07,  avg # of iterations =  1.8

     negative rho (up, down):  5.654E+00 0.000E+00

     total cpu time spent up to now is     4139.6 secs

     total energy              =   -6934.44329004 Ry
     Harris-Foulkes estimate   =   -6934.44355514 Ry
     estimated scf accuracy    <       0.00128873 Ry

     iteration # 42     ecut=    40.42 Ry     beta=0.20
     Davidson diagonalization with overlap
     ethr =  2.29E-07,  avg # of iterations =  2.0

     negative rho (up, down):  5.646E+00 0.000E+00

     total cpu time spent up to now is     4241.4 secs

     total energy              =   -6934.44322454 Ry
     Harris-Foulkes estimate   =   -6934.44331454 Ry
     estimated scf accuracy    <       0.00069273 Ry

     iteration # 43     ecut=    40.42 Ry     beta=0.20
     Davidson diagonalization with overlap
     ethr =  1.23E-07,  avg # of iterations =  6.2

     negative rho (up, down):  5.645E+00 0.000E+00

     total cpu time spent up to now is     4348.6 secs

     total energy              =   -6934.44325885 Ry
     Harris-Foulkes estimate   =   -6934.44327217 Ry
     estimated scf accuracy    <       0.00051447 Ry

     iteration # 44     ecut=    40.42 Ry     beta=0.20
     Davidson diagonalization with overlap
     ethr =  9.15E-08,  avg # of iterations =  1.0

     negative rho (up, down):  5.645E+00 0.000E+00

     total cpu time spent up to now is     4443.7 secs

     total energy              =   -6934.44314758 Ry
     Harris-Foulkes estimate   =   -6934.44326165 Ry
     estimated scf accuracy    <       0.00047045 Ry

     iteration # 45     ecut=    40.42 Ry     beta=0.20
     Davidson diagonalization with overlap
     ethr =  8.37E-08,  avg # of iterations =  8.5

     negative rho (up, down):  5.645E+00 0.000E+00

     total cpu time spent up to now is     4557.7 secs

     total energy              =   -6934.44326270 Ry
     Harris-Foulkes estimate   =   -6934.44325813 Ry
     estimated scf accuracy    <       0.00062551 Ry

     iteration # 46     ecut=    40.42 Ry     beta=0.20
     Davidson diagonalization with overlap
     ethr =  8.37E-08,  avg # of iterations =  1.0

     negative rho (up, down):  5.644E+00 0.000E+00

     total cpu time spent up to now is     4653.9 secs

     total energy              =   -6934.44327302 Ry
     Harris-Foulkes estimate   =   -6934.44327070 Ry
     estimated scf accuracy    <       0.00053973 Ry

     iteration # 47     ecut=    40.42 Ry     beta=0.20
     Davidson diagonalization with overlap
     ethr =  8.37E-08,  avg # of iterations =  2.0

     negative rho (up, down):  5.644E+00 0.000E+00

     total cpu time spent up to now is     4751.9 secs

     total energy              =   -6934.44324145 Ry
     Harris-Foulkes estimate   =   -6934.44329584 Ry
     estimated scf accuracy    <       0.00100725 Ry

     iteration # 48     ecut=    40.42 Ry     beta=0.20
     Davidson diagonalization with overlap
     ethr =  8.37E-08,  avg # of iterations =  1.0

     negative rho (up, down):  5.643E+00 0.000E+00

     total cpu time spent up to now is     4850.0 secs

     total energy              =   -6934.44324549 Ry
     Harris-Foulkes estimate   =   -6934.44324734 Ry
     estimated scf accuracy    <       0.00077450 Ry

     iteration # 49     ecut=    40.42 Ry     beta=0.20
     Davidson diagonalization with overlap
     ethr =  8.37E-08,  avg # of iterations =  1.0

     negative rho (up, down):  5.642E+00 0.000E+00

     total cpu time spent up to now is     4946.5 secs

     total energy              =   -6934.44323446 Ry
     Harris-Foulkes estimate   =   -6934.44324657 Ry
     estimated scf accuracy    <       0.00072478 Ry

     iteration # 50     ecut=    40.42 Ry     beta=0.20
     Davidson diagonalization with overlap
     ethr =  8.37E-08,  avg # of iterations =  1.0

     negative rho (up, down):  5.643E+00 0.000E+00

     total cpu time spent up to now is     5041.2 secs

     total energy              =   -6934.44324656 Ry
     Harris-Foulkes estimate   =   -6934.44323546 Ry
     estimated scf accuracy    <       0.00065935 Ry

     iteration # 51     ecut=    40.42 Ry     beta=0.20
     Davidson diagonalization with overlap
     ethr =  8.37E-08,  avg # of iterations =  1.0

     negative rho (up, down):  5.644E+00 0.000E+00

     total cpu time spent up to now is     5134.9 secs

     total energy              =   -6934.44322908 Ry
     Harris-Foulkes estimate   =   -6934.44324719 Ry
     estimated scf accuracy    <       0.00070039 Ry

     iteration # 52     ecut=    40.42 Ry     beta=0.20
     Davidson diagonalization with overlap
     ethr =  8.37E-08,  avg # of iterations =  1.0

     negative rho (up, down):  5.643E+00 0.000E+00

     total cpu time spent up to now is     5233.3 secs

     total energy              =   -6934.44323737 Ry
     Harris-Foulkes estimate   =   -6934.44323412 Ry
     estimated scf accuracy    <       0.00055960 Ry

     iteration # 53     ecut=    40.42 Ry     beta=0.20
     Davidson diagonalization with overlap
     ethr =  8.37E-08,  avg # of iterations =  1.0

     negative rho (up, down):  5.644E+00 0.000E+00

     total cpu time spent up to now is     5329.6 secs

     total energy              =   -6934.44317293 Ry
     Harris-Foulkes estimate   =   -6934.44323811 Ry
     estimated scf accuracy    <       0.00056525 Ry

     iteration # 54     ecut=    40.42 Ry     beta=0.20
     Davidson diagonalization with overlap
     ethr =  8.37E-08,  avg # of iterations = 10.8

     negative rho (up, down):  5.645E+00 0.000E+00

     total cpu time spent up to now is     5445.6 secs

     total energy              =   -6934.44322937 Ry
     Harris-Foulkes estimate   =   -6934.44328926 Ry
     estimated scf accuracy    <       0.00087471 Ry

     iteration # 55     ecut=    40.42 Ry     beta=0.20
     Davidson diagonalization with overlap
     ethr =  8.37E-08,  avg # of iterations =  2.0

     negative rho (up, down):  5.645E+00 0.000E+00

     total cpu time spent up to now is     5541.7 secs

     total energy              =   -6934.44318332 Ry
     Harris-Foulkes estimate   =   -6934.44324252 Ry
     estimated scf accuracy    <       0.00049930 Ry

     iteration # 56     ecut=    40.42 Ry     beta=0.20
     Davidson diagonalization with overlap
     ethr =  8.37E-08,  avg # of iterations =  3.0

     negative rho (up, down):  5.643E+00 0.000E+00

     total cpu time spent up to now is     5643.5 secs

     total energy              =   -6934.44316519 Ry
     Harris-Foulkes estimate   =   -6934.44320256 Ry
     estimated scf accuracy    <       0.00022577 Ry

     iteration # 57     ecut=    40.42 Ry     beta=0.20
     Davidson diagonalization with overlap
     ethr =  4.02E-08,  avg # of iterations = 11.2

     negative rho (up, down):  5.643E+00 0.000E+00

     total cpu time spent up to now is     5765.4 secs

     total energy              =   -6934.44323564 Ry
     Harris-Foulkes estimate   =   -6934.44328312 Ry
     estimated scf accuracy    <       0.00117100 Ry

     iteration # 58     ecut=    40.42 Ry     beta=0.20
     Davidson diagonalization with overlap
     ethr =  4.02E-08,  avg # of iterations =  1.0

     negative rho (up, down):  5.645E+00 0.000E+00

     total cpu time spent up to now is     5863.0 secs

     total energy              =   -6934.44316275 Ry
     Harris-Foulkes estimate   =   -6934.44323904 Ry
     estimated scf accuracy    <       0.00089051 Ry

     iteration # 59     ecut=    40.42 Ry     beta=0.20
     Davidson diagonalization with overlap
     ethr =  4.02E-08,  avg # of iterations = 11.2

     negative rho (up, down):  5.645E+00 0.000E+00

     total cpu time spent up to now is     5976.5 secs

     total energy              =   -6934.44318685 Ry
     Harris-Foulkes estimate   =   -6934.44318865 Ry
     estimated scf accuracy    <       0.00025601 Ry

     iteration # 60     ecut=    40.42 Ry     beta=0.20
     Davidson diagonalization with overlap
     ethr =  4.02E-08,  avg # of iterations =  1.0

     negative rho (up, down):  5.646E+00 0.000E+00

     total cpu time spent up to now is     6076.9 secs

     total energy              =   -6934.44315799 Ry
     Harris-Foulkes estimate   =   -6934.44318790 Ry
     estimated scf accuracy    <       0.00023993 Ry

     iteration # 61     ecut=    40.42 Ry     beta=0.20
     Davidson diagonalization with overlap
     ethr =  4.02E-08,  avg # of iterations =  1.0

     negative rho (up, down):  5.646E+00 0.000E+00

     total cpu time spent up to now is     6177.1 secs

     total energy              =   -6934.44314887 Ry
     Harris-Foulkes estimate   =   -6934.44316742 Ry
     estimated scf accuracy    <       0.00010476 Ry

     iteration # 62     ecut=    40.42 Ry     beta=0.20
     Davidson diagonalization with overlap
     ethr =  1.86E-08,  avg # of iterations = 10.0

     negative rho (up, down):  5.645E+00 0.000E+00

     total cpu time spent up to now is     6291.8 secs

     total energy              =   -6934.44318475 Ry
     Harris-Foulkes estimate   =   -6934.44321968 Ry
     estimated scf accuracy    <       0.00061525 Ry

     iteration # 63     ecut=    40.42 Ry     beta=0.20
     Davidson diagonalization with overlap
     ethr =  1.86E-08,  avg # of iterations =  2.0

     negative rho (up, down):  5.645E+00 0.000E+00

     total cpu time spent up to now is     6390.9 secs

     total energy              =   -6934.44315862 Ry
     Harris-Foulkes estimate   =   -6934.44318815 Ry
     estimated scf accuracy    <       0.00041844 Ry

     iteration # 64     ecut=    40.42 Ry     beta=0.20
     Davidson diagonalization with overlap
     ethr =  1.86E-08,  avg # of iterations =  6.2

     negative rho (up, down):  5.645E+00 0.000E+00

     total cpu time spent up to now is     6489.8 secs

     total energy              =   -6934.44316135 Ry
     Harris-Foulkes estimate   =   -6934.44316639 Ry
     estimated scf accuracy    <       0.00026298 Ry

     iteration # 65     ecut=    40.42 Ry     beta=0.20
     Davidson diagonalization with overlap
     ethr =  1.86E-08,  avg # of iterations =  1.0

     negative rho (up, down):  5.644E+00 0.000E+00

     total cpu time spent up to now is     6581.3 secs

     total energy              =   -6934.44314424 Ry
     Harris-Foulkes estimate   =   -6934.44316222 Ry
     estimated scf accuracy    <       0.00023690 Ry

     iteration # 66     ecut=    40.42 Ry     beta=0.20
     Davidson diagonalization with overlap
     c_bands:  1 eigenvalues not converged
     ethr =  1.86E-08,  avg # of iterations = 10.8

     negative rho (up, down):  5.644E+00 0.000E+00

     total cpu time spent up to now is     6690.7 secs

     total energy              =   -6934.44315360 Ry
     Harris-Foulkes estimate   =   -6934.44315547 Ry
     estimated scf accuracy    <       0.00009170 Ry

     iteration # 67     ecut=    40.42 Ry     beta=0.20
     Davidson diagonalization with overlap
     ethr =  1.63E-08,  avg # of iterations =  1.0

     negative rho (up, down):  5.644E+00 0.000E+00

     total cpu time spent up to now is     6784.0 secs

     total energy              =   -6934.44315644 Ry
     Harris-Foulkes estimate   =   -6934.44315411 Ry
     estimated scf accuracy    <       0.00008320 Ry

     iteration # 68     ecut=    40.42 Ry     beta=0.20
     Davidson diagonalization with overlap
     ethr =  1.48E-08,  avg # of iterations =  1.0

     negative rho (up, down):  5.644E+00 0.000E+00

     total cpu time spent up to now is     6874.5 secs

     total energy              =   -6934.44315379 Ry
     Harris-Foulkes estimate   =   -6934.44315674 Ry
     estimated scf accuracy    <       0.00009489 Ry

     iteration # 69     ecut=    40.42 Ry     beta=0.20
     Davidson diagonalization with overlap
     ethr =  1.48E-08,  avg # of iterations =  1.0

     negative rho (up, down):  5.645E+00 0.000E+00

     total cpu time spent up to now is     6968.4 secs

     total energy              =   -6934.44315336 Ry
     Harris-Foulkes estimate   =   -6934.44315452 Ry
     estimated scf accuracy    <       0.00009079 Ry

     iteration # 70     ecut=    40.42 Ry     beta=0.20
     Davidson diagonalization with overlap
     ethr =  1.48E-08,  avg # of iterations =  1.0

     negative rho (up, down):  5.645E+00 0.000E+00

     total cpu time spent up to now is     7062.4 secs

     total energy              =   -6934.44314999 Ry
     Harris-Foulkes estimate   =   -6934.44315405 Ry
     estimated scf accuracy    <       0.00009304 Ry

     iteration # 71     ecut=    40.42 Ry     beta=0.20
     Davidson diagonalization with overlap
     c_bands:  2 eigenvalues not converged
     ethr =  1.48E-08,  avg # of iterations =  5.8

     negative rho (up, down):  5.645E+00 0.000E+00

     total cpu time spent up to now is     7162.4 secs

     total energy              =   -6934.44315695 Ry
     Harris-Foulkes estimate   =   -6934.44315836 Ry
     estimated scf accuracy    <       0.00016296 Ry

     iteration # 72     ecut=    40.42 Ry     beta=0.20
     Davidson diagonalization with overlap
     ethr =  1.48E-08,  avg # of iterations =  2.2

     negative rho (up, down):  5.645E+00 0.000E+00

     total cpu time spent up to now is     7258.0 secs

     total energy              =   -6934.44315709 Ry
     Harris-Foulkes estimate   =   -6934.44315721 Ry
     estimated scf accuracy    <       0.00015596 Ry

     iteration # 73     ecut=    40.42 Ry     beta=0.20
     Davidson diagonalization with overlap
     ethr =  1.48E-08,  avg # of iterations =  1.0

     negative rho (up, down):  5.645E+00 0.000E+00

     total cpu time spent up to now is     7355.4 secs

     total energy              =   -6934.44314914 Ry
     Harris-Foulkes estimate   =   -6934.44315730 Ry
     estimated scf accuracy    <       0.00014610 Ry

     iteration # 74     ecut=    40.42 Ry     beta=0.20
     Davidson diagonalization with overlap
     ethr =  1.48E-08,  avg # of iterations =  1.0

     negative rho (up, down):  5.645E+00 0.000E+00

     total cpu time spent up to now is     7449.9 secs

     total energy              =   -6934.44313519 Ry
     Harris-Foulkes estimate   =   -6934.44314960 Ry
     estimated scf accuracy    <       0.00011941 Ry

     iteration # 75     ecut=    40.42 Ry     beta=0.20
     Davidson diagonalization with overlap
     ethr =  1.48E-08,  avg # of iterations =  1.0

     negative rho (up, down):  5.645E+00 0.000E+00

     total cpu time spent up to now is     7541.2 secs

     total energy              =   -6934.44313430 Ry
     Harris-Foulkes estimate   =   -6934.44313779 Ry
     estimated scf accuracy    <       0.00005535 Ry

     iteration # 76     ecut=    40.42 Ry     beta=0.20
     Davidson diagonalization with overlap
     c_bands:  2 eigenvalues not converged
     c_bands:  2 eigenvalues not converged
     c_bands:  2 eigenvalues not converged
     ethr =  9.85E-09,  avg # of iterations = 15.2

     negative rho (up, down):  5.644E+00 0.000E+00

     total cpu time spent up to now is     7654.9 secs

     total energy              =   -6934.44315163 Ry
     Harris-Foulkes estimate   =   -6934.44316216 Ry
     estimated scf accuracy    <       0.00023493 Ry

     iteration # 77     ecut=    40.42 Ry     beta=0.20
     Davidson diagonalization with overlap
     ethr =  9.85E-09,  avg # of iterations =  5.5

     negative rho (up, down):  5.645E+00 0.000E+00

     total cpu time spent up to now is     7752.8 secs

     total energy              =   -6934.44315763 Ry
     Harris-Foulkes estimate   =   -6934.44315237 Ry
     estimated scf accuracy    <       0.00018687 Ry

     iteration # 78     ecut=    40.42 Ry     beta=0.20
     Davidson diagonalization with overlap
     ethr =  9.85E-09,  avg # of iterations =  1.0

     negative rho (up, down):  5.645E+00 0.000E+00

     total cpu time spent up to now is     7842.8 secs

     total energy              =   -6934.44316973 Ry
     Harris-Foulkes estimate   =   -6934.44315782 Ry
     estimated scf accuracy    <       0.00021359 Ry

     iteration # 79     ecut=    40.42 Ry     beta=0.20
     Davidson diagonalization with overlap
     ethr =  9.85E-09,  avg # of iterations =  1.0

     negative rho (up, down):  5.645E+00 0.000E+00

     total cpu time spent up to now is     7934.4 secs

     total energy              =   -6934.44311915 Ry
     Harris-Foulkes estimate   =   -6934.44317035 Ry
     estimated scf accuracy    <       0.00028157 Ry

     iteration # 80     ecut=    40.42 Ry     beta=0.20
     Davidson diagonalization with overlap
     ethr =  9.85E-09,  avg # of iterations = 11.5

     negative rho (up, down):  5.644E+00 0.000E+00

     total cpu time spent up to now is     8053.0 secs

     total energy              =   -6934.44313106 Ry
     Harris-Foulkes estimate   =   -6934.44315095 Ry
     estimated scf accuracy    <       0.00011642 Ry

     iteration # 81     ecut=    40.42 Ry     beta=0.20
     Davidson diagonalization with overlap
     c_bands:  1 eigenvalues not converged
     c_bands:  1 eigenvalues not converged
     ethr =  9.85E-09,  avg # of iterations = 11.0

     negative rho (up, down):  5.645E+00 0.000E+00

     total cpu time spent up to now is     8161.4 secs

     total energy              =   -6934.44314028 Ry
     Harris-Foulkes estimate   =   -6934.44314215 Ry
     estimated scf accuracy    <       0.00004254 Ry

     iteration # 82     ecut=    40.42 Ry     beta=0.20
     Davidson diagonalization with overlap
     ethr =  7.57E-09,  avg # of iterations =  5.2

     negative rho (up, down):  5.645E+00 0.000E+00

     total cpu time spent up to now is     8257.2 secs

     total energy              =   -6934.44314127 Ry
     Harris-Foulkes estimate   =   -6934.44314101 Ry
     estimated scf accuracy    <       0.00003499 Ry

     iteration # 83     ecut=    40.42 Ry     beta=0.20
     Davidson diagonalization with overlap
     ethr =  6.23E-09,  avg # of iterations =  1.5

     negative rho (up, down):  5.644E+00 0.000E+00

     total cpu time spent up to now is     8351.6 secs

     total energy              =   -6934.44314353 Ry
     Harris-Foulkes estimate   =   -6934.44314212 Ry
     estimated scf accuracy    <       0.00004701 Ry

     iteration # 84     ecut=    40.42 Ry     beta=0.20
     Davidson diagonalization with overlap
     ethr =  6.23E-09,  avg # of iterations =  1.0

     negative rho (up, down):  5.644E+00 0.000E+00

     total cpu time spent up to now is     8443.7 secs

     total energy              =   -6934.44313632 Ry
     Harris-Foulkes estimate   =   -6934.44314375 Ry
     estimated scf accuracy    <       0.00005347 Ry

     iteration # 85     ecut=    40.42 Ry     beta=0.20
     Davidson diagonalization with overlap
     c_bands:  2 eigenvalues not converged
     c_bands:  1 eigenvalues not converged
     ethr =  6.23E-09,  avg # of iterations = 11.0

     negative rho (up, down):  5.644E+00 0.000E+00

     total cpu time spent up to now is     8554.7 secs

     total energy              =   -6934.44313905 Ry
     Harris-Foulkes estimate   =   -6934.44314658 Ry
     estimated scf accuracy    <       0.00006967 Ry

     iteration # 86     ecut=    40.42 Ry     beta=0.20
     Davidson diagonalization with overlap
     c_bands:  2 eigenvalues not converged
     ethr =  6.23E-09,  avg # of iterations =  6.0

     negative rho (up, down):  5.644E+00 0.000E+00

     total cpu time spent up to now is     8654.0 secs

     total energy              =   -6934.44313806 Ry
     Harris-Foulkes estimate   =   -6934.44314009 Ry
     estimated scf accuracy    <       0.00003785 Ry

     iteration # 87     ecut=    40.42 Ry     beta=0.20
     Davidson diagonalization with overlap
     c_bands:  2 eigenvalues not converged
     ethr =  6.23E-09,  avg # of iterations =  5.8

     negative rho (up, down):  5.644E+00 0.000E+00

     total cpu time spent up to now is     8754.0 secs

     total energy              =   -6934.44313882 Ry
     Harris-Foulkes estimate   =   -6934.44313901 Ry
     estimated scf accuracy    <       0.00003109 Ry

     iteration # 88     ecut=    40.42 Ry     beta=0.20
     Davidson diagonalization with overlap
     c_bands:  2 eigenvalues not converged
     ethr =  5.53E-09,  avg # of iterations =  5.8

     negative rho (up, down):  5.644E+00 0.000E+00

     total cpu time spent up to now is     8856.8 secs

     total energy              =   -6934.44314225 Ry
     Harris-Foulkes estimate   =   -6934.44314203 Ry
     estimated scf accuracy    <       0.00008308 Ry

     iteration # 89     ecut=    40.42 Ry     beta=0.20
     Davidson diagonalization with overlap
     c_bands:  2 eigenvalues not converged
     ethr =  5.53E-09,  avg # of iterations =  5.8

     negative rho (up, down):  5.644E+00 0.000E+00

     total cpu time spent up to now is     8957.4 secs

     total energy              =   -6934.44314161 Ry
     Harris-Foulkes estimate   =   -6934.44314365 Ry
     estimated scf accuracy    <       0.00010404 Ry

     iteration # 90     ecut=    40.42 Ry     beta=0.20
     Davidson diagonalization with overlap
     ethr =  5.53E-09,  avg # of iterations =  2.0

     negative rho (up, down):  5.644E+00 0.000E+00

     total cpu time spent up to now is     9056.9 secs

     total energy              =   -6934.44314207 Ry
     Harris-Foulkes estimate   =   -6934.44314196 Ry
     estimated scf accuracy    <       0.00009098 Ry

     iteration # 91     ecut=    40.42 Ry     beta=0.20
     Davidson diagonalization with overlap
     ethr =  5.53E-09,  avg # of iterations =  1.0

     negative rho (up, down):  5.644E+00 0.000E+00

     total cpu time spent up to now is     9147.5 secs

     total energy              =   -6934.44314331 Ry
     Harris-Foulkes estimate   =   -6934.44314212 Ry
     estimated scf accuracy    <       0.00009207 Ry

     iteration # 92     ecut=    40.42 Ry     beta=0.20
     Davidson diagonalization with overlap
     ethr =  5.53E-09,  avg # of iterations = 10.5

     negative rho (up, down):  5.644E+00 0.000E+00

     total cpu time spent up to now is     9260.5 secs

     total energy              =   -6934.44315676 Ry
     Harris-Foulkes estimate   =   -6934.44317136 Ry
     estimated scf accuracy    <       0.00031614 Ry

     iteration # 93     ecut=    40.42 Ry     beta=0.20
     Davidson diagonalization with overlap
     ethr =  5.53E-09,  avg # of iterations =  1.0

     negative rho (up, down):  5.644E+00 0.000E+00

     total cpu time spent up to now is     9353.1 secs

     total energy              =   -6934.44313054 Ry
     Harris-Foulkes estimate   =   -6934.44315742 Ry
     estimated scf accuracy    <       0.00024570 Ry

     iteration # 94     ecut=    40.42 Ry     beta=0.20
     Davidson diagonalization with overlap
     ethr =  5.53E-09,  avg # of iterations =  9.8

     negative rho (up, down):  5.644E+00 0.000E+00

     total cpu time spent up to now is     9467.9 secs

     total energy              =   -6934.44314108 Ry
     Harris-Foulkes estimate   =   -6934.44314345 Ry
     estimated scf accuracy    <       0.00005149 Ry

     iteration # 95     ecut=    40.42 Ry     beta=0.20
     Davidson diagonalization with overlap
     ethr =  5.53E-09,  avg # of iterations =  1.0

     negative rho (up, down):  5.644E+00 0.000E+00

     total cpu time spent up to now is     9562.4 secs

     total energy              =   -6934.44314155 Ry
     Harris-Foulkes estimate   =   -6934.44314134 Ry
     estimated scf accuracy    <       0.00004134 Ry

     iteration # 96     ecut=    40.42 Ry     beta=0.20
     Davidson diagonalization with overlap
     ethr =  5.53E-09,  avg # of iterations =  1.0

     negative rho (up, down):  5.644E+00 0.000E+00

     total cpu time spent up to now is     9655.5 secs

     total energy              =   -6934.44313816 Ry
     Harris-Foulkes estimate   =   -6934.44314185 Ry
     estimated scf accuracy    <       0.00004715 Ry

     iteration # 97     ecut=    40.42 Ry     beta=0.20
     Davidson diagonalization with overlap
     ethr =  5.53E-09,  avg # of iterations = 10.8

     negative rho (up, down):  5.644E+00 0.000E+00

     total cpu time spent up to now is     9770.0 secs

     total energy              =   -6934.44313603 Ry
     Harris-Foulkes estimate   =   -6934.44314639 Ry
     estimated scf accuracy    <       0.00011281 Ry

     iteration # 98     ecut=    40.42 Ry     beta=0.20
     Davidson diagonalization with overlap
     ethr =  5.53E-09,  avg # of iterations =  1.0

     negative rho (up, down):  5.644E+00 0.000E+00

     total cpu time spent up to now is     9860.7 secs

     total energy              =   -6934.44313034 Ry
     Harris-Foulkes estimate   =   -6934.44313742 Ry
     estimated scf accuracy    <       0.00006418 Ry

     iteration # 99     ecut=    40.42 Ry     beta=0.20
     Davidson diagonalization with overlap
     ethr =  5.53E-09,  avg # of iterations = 12.8

     negative rho (up, down):  5.644E+00 0.000E+00

     total cpu time spent up to now is     9976.9 secs

     total energy              =   -6934.44314315 Ry
     Harris-Foulkes estimate   =   -6934.44315882 Ry
     estimated scf accuracy    <       0.00021890 Ry

     iteration #100     ecut=    40.42 Ry     beta=0.20
     Davidson diagonalization with overlap
     ethr =  5.53E-09,  avg # of iterations =  1.0

     negative rho (up, down):  5.644E+00 0.000E+00

     total cpu time spent up to now is    10071.0 secs

     total energy              =   -6934.44312602 Ry
     Harris-Foulkes estimate   =   -6934.44314412 Ry
     estimated scf accuracy    <       0.00015164 Ry

     iteration #101     ecut=    40.42 Ry     beta=0.20
     Davidson diagonalization with overlap
     ethr =  5.53E-09,  avg # of iterations = 10.5

     negative rho (up, down):  5.644E+00 0.000E+00

     total cpu time spent up to now is    10184.5 secs

     total energy              =   -6934.44313478 Ry
     Harris-Foulkes estimate   =   -6934.44314818 Ry
     estimated scf accuracy    <       0.00012457 Ry

     iteration #102     ecut=    40.42 Ry     beta=0.20
     Davidson diagonalization with overlap
     c_bands:  1 eigenvalues not converged
     c_bands:  2 eigenvalues not converged
     ethr =  5.53E-09,  avg # of iterations = 10.8

     negative rho (up, down):  5.644E+00 0.000E+00

     total cpu time spent up to now is    10293.3 secs

     total energy              =   -6934.44313883 Ry
     Harris-Foulkes estimate   =   -6934.44313884 Ry
     estimated scf accuracy    <       0.00005384 Ry

     iteration #103     ecut=    40.42 Ry     beta=0.20
     Davidson diagonalization with overlap
     ethr =  5.53E-09,  avg # of iterations =  1.2

     negative rho (up, down):  5.644E+00 0.000E+00

     total cpu time spent up to now is    10385.9 secs

     total energy              =   -6934.44313963 Ry
     Harris-Foulkes estimate   =   -6934.44313896 Ry
     estimated scf accuracy    <       0.00005415 Ry

     iteration #104     ecut=    40.42 Ry     beta=0.20
     Davidson diagonalization with overlap
     ethr =  5.53E-09,  avg # of iterations =  1.0

     negative rho (up, down):  5.644E+00 0.000E+00

     total cpu time spent up to now is    10478.6 secs

     total energy              =   -6934.44313582 Ry
     Harris-Foulkes estimate   =   -6934.44313968 Ry
     estimated scf accuracy    <       0.00005729 Ry

     iteration #105     ecut=    40.42 Ry     beta=0.20
     Davidson diagonalization with overlap
     ethr =  5.53E-09,  avg # of iterations =  1.0

     negative rho (up, down):  5.644E+00 0.000E+00

     total cpu time spent up to now is    10571.5 secs

     total energy              =   -6934.44313261 Ry
     Harris-Foulkes estimate   =   -6934.44313627 Ry
     estimated scf accuracy    <       0.00003926 Ry

     iteration #106     ecut=    40.42 Ry     beta=0.20
     Davidson diagonalization with overlap
     ethr =  5.53E-09,  avg # of iterations =  1.0

     negative rho (up, down):  5.645E+00 0.000E+00

     total cpu time spent up to now is    10666.2 secs

     total energy              =   -6934.44313095 Ry
     Harris-Foulkes estimate   =   -6934.44313318 Ry
     estimated scf accuracy    <       0.00002228 Ry

     iteration #107     ecut=    40.42 Ry     beta=0.20
     Davidson diagonalization with overlap
     c_bands:  2 eigenvalues not converged
     c_bands:  1 eigenvalues not converged
     c_bands:  2 eigenvalues not converged
     ethr =  3.97E-09,  avg # of iterations = 15.8

     negative rho (up, down):  5.645E+00 0.000E+00

     total cpu time spent up to now is    10783.0 secs

     total energy              =   -6934.44315418 Ry
     Harris-Foulkes estimate   =   -6934.44315115 Ry
     estimated scf accuracy    <       0.00027999 Ry

     iteration #108     ecut=    40.42 Ry     beta=0.20
     Davidson diagonalization with overlap
     ethr =  3.97E-09,  avg # of iterations =  2.5

     negative rho (up, down):  5.645E+00 0.000E+00

     total cpu time spent up to now is    10881.7 secs

     total energy              =   -6934.44314994 Ry
     Harris-Foulkes estimate   =   -6934.44315430 Ry
     estimated scf accuracy    <       0.00030389 Ry

     iteration #109     ecut=    40.42 Ry     beta=0.20
     Davidson diagonalization with overlap
     ethr =  3.97E-09,  avg # of iterations =  1.0

     negative rho (up, down):  5.645E+00 0.000E+00

     total cpu time spent up to now is    10975.4 secs

     total energy              =   -6934.44315504 Ry
     Harris-Foulkes estimate   =   -6934.44315015 Ry
     estimated scf accuracy    <       0.00027932 Ry

     iteration #110     ecut=    40.42 Ry     beta=0.20
     Davidson diagonalization with overlap
     ethr =  3.97E-09,  avg # of iterations =  1.0

     negative rho (up, down):  5.645E+00 0.000E+00

     total cpu time spent up to now is    11067.1 secs

     total energy              =   -6934.44315714 Ry
     Harris-Foulkes estimate   =   -6934.44315549 Ry
     estimated scf accuracy    <       0.00031365 Ry

     iteration #111     ecut=    40.42 Ry     beta=0.20
     Davidson diagonalization with overlap
     ethr =  3.97E-09,  avg # of iterations =  1.0

     negative rho (up, down):  5.645E+00 0.000E+00

     total cpu time spent up to now is    11160.7 secs

     total energy              =   -6934.44315698 Ry
     Harris-Foulkes estimate   =   -6934.44315732 Ry
     estimated scf accuracy    <       0.00032918 Ry

     iteration #112     ecut=    40.42 Ry     beta=0.20
     Davidson diagonalization with overlap
     ethr =  3.97E-09,  avg # of iterations =  1.0

     negative rho (up, down):  5.645E+00 0.000E+00

     total cpu time spent up to now is    11258.5 secs

     total energy              =   -6934.44315340 Ry
     Harris-Foulkes estimate   =   -6934.44315704 Ry
     estimated scf accuracy    <       0.00033101 Ry

     iteration #113     ecut=    40.42 Ry     beta=0.20
     Davidson diagonalization with overlap
     ethr =  3.97E-09,  avg # of iterations =  1.0

     negative rho (up, down):  5.645E+00 0.000E+00

     total cpu time spent up to now is    11355.2 secs

     total energy              =   -6934.44317293 Ry
     Harris-Foulkes estimate   =   -6934.44315359 Ry
     estimated scf accuracy    <       0.00030933 Ry

     iteration #114     ecut=    40.42 Ry     beta=0.20
     Davidson diagonalization with overlap
     ethr =  3.97E-09,  avg # of iterations =  9.0

     negative rho (up, down):  5.645E+00 0.000E+00

     total cpu time spent up to now is    11473.0 secs

     total energy              =   -6934.44317314 Ry
     Harris-Foulkes estimate   =   -6934.44317798 Ry
     estimated scf accuracy    <       0.00056104 Ry

     iteration #115     ecut=    40.42 Ry     beta=0.20
     Davidson diagonalization with overlap
     ethr =  3.97E-09,  avg # of iterations =  1.0

     negative rho (up, down):  5.644E+00 0.000E+00

     total cpu time spent up to now is    11568.8 secs

     total energy              =   -6934.44305959 Ry
     Harris-Foulkes estimate   =   -6934.44317327 Ry
     estimated scf accuracy    <       0.00053007 Ry

     iteration #116     ecut=    40.42 Ry     beta=0.20
     Davidson diagonalization with overlap
     ethr =  3.97E-09,  avg # of iterations =  8.5

     negative rho (up, down):  5.645E+00 0.000E+00

     total cpu time spent up to now is    11738.7 secs

     total energy              =   -6934.44311259 Ry
     Harris-Foulkes estimate   =   -6934.44320077 Ry
     estimated scf accuracy    <       0.00079694 Ry

     iteration #117     ecut=    40.42 Ry     beta=0.20
     Davidson diagonalization with overlap
     ethr =  3.97E-09,  avg # of iterations =  8.5

     negative rho (up, down):  5.645E+00 0.000E+00

     total cpu time spent up to now is    11885.2 secs

     total energy              =   -6934.44312899 Ry
     Harris-Foulkes estimate   =   -6934.44314379 Ry
     estimated scf accuracy    <       0.00010270 Ry

     iteration #118     ecut=    40.42 Ry     beta=0.20
     Davidson diagonalization with overlap
     ethr =  3.97E-09,  avg # of iterations = 10.2

     negative rho (up, down):  5.645E+00 0.000E+00

     total cpu time spent up to now is    12001.6 secs

     total energy              =   -6934.44313765 Ry
     Harris-Foulkes estimate   =   -6934.44314367 Ry
     estimated scf accuracy    <       0.00015076 Ry

     iteration #119     ecut=    40.42 Ry     beta=0.20
     Davidson diagonalization with overlap
     ethr =  3.97E-09,  avg # of iterations =  1.0

     negative rho (up, down):  5.645E+00 0.000E+00

     total cpu time spent up to now is    12095.7 secs

     total energy              =   -6934.44313721 Ry
     Harris-Foulkes estimate   =   -6934.44313809 Ry
     estimated scf accuracy    <       0.00011245 Ry

     iteration #120     ecut=    40.42 Ry     beta=0.20
     Davidson diagonalization with overlap
     ethr =  3.97E-09,  avg # of iterations =  1.0

     negative rho (up, down):  5.645E+00 0.000E+00

     total cpu time spent up to now is    12192.8 secs

     total energy              =   -6934.44313811 Ry
     Harris-Foulkes estimate   =   -6934.44313728 Ry
     estimated scf accuracy    <       0.00010514 Ry

     iteration #121     ecut=    40.42 Ry     beta=0.20
     Davidson diagonalization with overlap
     ethr =  3.97E-09,  avg # of iterations =  1.0

     negative rho (up, down):  5.645E+00 0.000E+00

     total cpu time spent up to now is    12289.9 secs

     total energy              =   -6934.44313509 Ry
     Harris-Foulkes estimate   =   -6934.44313821 Ry
     estimated scf accuracy    <       0.00010633 Ry

     iteration #122     ecut=    40.42 Ry     beta=0.20
     Davidson diagonalization with overlap
     c_bands:  1 eigenvalues not converged
     ethr =  3.97E-09,  avg # of iterations =  5.8

     negative rho (up, down):  5.645E+00 0.000E+00

     total cpu time spent up to now is    12394.5 secs

     total energy              =   -6934.44313647 Ry
     Harris-Foulkes estimate   =   -6934.44313608 Ry
     estimated scf accuracy    <       0.00007297 Ry

     iteration #123     ecut=    40.42 Ry     beta=0.20
     Davidson diagonalization with overlap
     c_bands:  2 eigenvalues not converged
     ethr =  3.97E-09,  avg # of iterations =  6.0

     negative rho (up, down):  5.645E+00 0.000E+00

     total cpu time spent up to now is    12501.5 secs

     total energy              =   -6934.44313813 Ry
     Harris-Foulkes estimate   =   -6934.44313855 Ry
     estimated scf accuracy    <       0.00005564 Ry

     iteration #124     ecut=    40.42 Ry     beta=0.20
     Davidson diagonalization with overlap
     ethr =  3.97E-09,  avg # of iterations =  2.0

     negative rho (up, down):  5.645E+00 0.000E+00

     total cpu time spent up to now is    12599.4 secs

     total energy              =   -6934.44313789 Ry
     Harris-Foulkes estimate   =   -6934.44313819 Ry
     estimated scf accuracy    <       0.00005416 Ry

     iteration #125     ecut=    40.42 Ry     beta=0.20
     Davidson diagonalization with overlap
     c_bands:  1 eigenvalues not converged
     ethr =  3.97E-09,  avg # of iterations =  5.8

     negative rho (up, down):  5.645E+00 0.000E+00

     total cpu time spent up to now is    12702.2 secs

     total energy              =   -6934.44313272 Ry
     Harris-Foulkes estimate   =   -6934.44314272 Ry
     estimated scf accuracy    <       0.00005854 Ry

     iteration #126     ecut=    40.42 Ry     beta=0.20
     Davidson diagonalization with overlap
     ethr =  3.97E-09,  avg # of iterations =  6.2

     negative rho (up, down):  5.645E+00 0.000E+00

     total cpu time spent up to now is    12807.9 secs

     total energy              =   -6934.44313595 Ry
     Harris-Foulkes estimate   =   -6934.44313766 Ry
     estimated scf accuracy    <       0.00005602 Ry

     iteration #127     ecut=    40.42 Ry     beta=0.20
     Davidson diagonalization with overlap
     ethr =  3.97E-09,  avg # of iterations =  1.2

     negative rho (up, down):  5.645E+00 0.000E+00

     total cpu time spent up to now is    12901.3 secs

     total energy              =   -6934.44313769 Ry
     Harris-Foulkes estimate   =   -6934.44313696 Ry
     estimated scf accuracy    <       0.00004598 Ry

     iteration #128     ecut=    40.42 Ry     beta=0.20
     Davidson diagonalization with overlap
     ethr =  3.97E-09,  avg # of iterations = 10.0

     negative rho (up, down):  5.645E+00 0.000E+00

     total cpu time spent up to now is    13017.8 secs

     total energy              =   -6934.44312248 Ry
     Harris-Foulkes estimate   =   -6934.44315441 Ry
     estimated scf accuracy    <       0.00020519 Ry

     iteration #129     ecut=    40.42 Ry     beta=0.20
     Davidson diagonalization with overlap
     ethr =  3.97E-09,  avg # of iterations =  9.8

     negative rho (up, down):  5.645E+00 0.000E+00

     total cpu time spent up to now is    13149.5 secs

     total energy              =   -6934.44314010 Ry
     Harris-Foulkes estimate   =   -6934.44314305 Ry
     estimated scf accuracy    <       0.00019439 Ry

     iteration #130     ecut=    40.42 Ry     beta=0.20
     Davidson diagonalization with overlap
     ethr =  3.97E-09,  avg # of iterations =  1.0

     negative rho (up, down):  5.645E+00 0.000E+00

     total cpu time spent up to now is    13243.2 secs

     total energy              =   -6934.44314707 Ry
     Harris-Foulkes estimate   =   -6934.44314019 Ry
     estimated scf accuracy    <       0.00017511 Ry

     iteration #131     ecut=    40.42 Ry     beta=0.20
     Davidson diagonalization with overlap
     ethr =  3.97E-09,  avg # of iterations =  1.0

     negative rho (up, down):  5.645E+00 0.000E+00

     total cpu time spent up to now is    13337.7 secs

     total energy              =   -6934.44314813 Ry
     Harris-Foulkes estimate   =   -6934.44314760 Ry
     estimated scf accuracy    <       0.00022207 Ry

     iteration #132     ecut=    40.42 Ry     beta=0.20
     Davidson diagonalization with overlap
     ethr =  3.97E-09,  avg # of iterations =  1.0

     negative rho (up, down):  5.645E+00 0.000E+00

     total cpu time spent up to now is    13438.2 secs

     total energy              =   -6934.44314719 Ry
     Harris-Foulkes estimate   =   -6934.44314827 Ry
     estimated scf accuracy    <       0.00022936 Ry

     iteration #133     ecut=    40.42 Ry     beta=0.20
     Davidson diagonalization with overlap
     ethr =  3.97E-09,  avg # of iterations =  1.0

     negative rho (up, down):  5.645E+00 0.000E+00

     total cpu time spent up to now is    13535.2 secs

     total energy              =   -6934.44314451 Ry
     Harris-Foulkes estimate   =   -6934.44314739 Ry
     estimated scf accuracy    <       0.00022388 Ry

     iteration #134     ecut=    40.42 Ry     beta=0.20
     Davidson diagonalization with overlap
     ethr =  3.97E-09,  avg # of iterations =  1.0

     negative rho (up, down):  5.645E+00 0.000E+00

     total cpu time spent up to now is    13630.7 secs

     total energy              =   -6934.44314463 Ry
     Harris-Foulkes estimate   =   -6934.44314468 Ry
     estimated scf accuracy    <       0.00020546 Ry

     iteration #135     ecut=    40.42 Ry     beta=0.20
     Davidson diagonalization with overlap
     ethr =  3.97E-09,  avg # of iterations =  1.0

     negative rho (up, down):  5.645E+00 0.000E+00

     total cpu time spent up to now is    13724.8 secs

     total energy              =   -6934.44314294 Ry
     Harris-Foulkes estimate   =   -6934.44314537 Ry
     estimated scf accuracy    <       0.00021507 Ry

     iteration #136     ecut=    40.42 Ry     beta=0.20
     Davidson diagonalization with overlap
     ethr =  3.97E-09,  avg # of iterations =  1.0

     negative rho (up, down):  5.645E+00 0.000E+00

     total cpu time spent up to now is    13822.0 secs

     total energy              =   -6934.44313801 Ry
     Harris-Foulkes estimate   =   -6934.44314308 Ry
     estimated scf accuracy    <       0.00019836 Ry

     iteration #137     ecut=    40.42 Ry     beta=0.20
     Davidson diagonalization with overlap
     ethr =  3.97E-09,  avg # of iterations =  1.0

     negative rho (up, down):  5.645E+00 0.000E+00

     total cpu time spent up to now is    13915.6 secs

     total energy              =   -6934.44310354 Ry
     Harris-Foulkes estimate   =   -6934.44313830 Ry
     estimated scf accuracy    <       0.00016047 Ry

     iteration #138     ecut=    40.42 Ry     beta=0.20
     Davidson diagonalization with overlap
     ethr =  3.97E-09,  avg # of iterations =  9.0

     negative rho (up, down):  5.645E+00 0.000E+00

     total cpu time spent up to now is    14058.6 secs

     total energy              =   -6934.44313835 Ry
     Harris-Foulkes estimate   =   -6934.44318572 Ry
     estimated scf accuracy    <       0.00059865 Ry

     iteration #139     ecut=    40.42 Ry     beta=0.20
     Davidson diagonalization with overlap
     ethr =  3.97E-09,  avg # of iterations =  8.8

     negative rho (up, down):  5.645E+00 0.000E+00

     total cpu time spent up to now is    14187.2 secs

     total energy              =   -6934.44313503 Ry
     Harris-Foulkes estimate   =   -6934.44314731 Ry
     estimated scf accuracy    <       0.00016737 Ry

     iteration #140     ecut=    40.42 Ry     beta=0.20
     Davidson diagonalization with overlap
     c_bands:  2 eigenvalues not converged
     c_bands:  2 eigenvalues not converged
     ethr =  3.97E-09,  avg # of iterations = 14.5

     negative rho (up, down):  5.645E+00 0.000E+00

     total cpu time spent up to now is    14307.1 secs

     total energy              =   -6934.44313577 Ry
     Harris-Foulkes estimate   =   -6934.44313882 Ry
     estimated scf accuracy    <       0.00004752 Ry

     iteration #141     ecut=    40.42 Ry     beta=0.20
     Davidson diagonalization with overlap
     ethr =  3.97E-09,  avg # of iterations =  4.2

     negative rho (up, down):  5.645E+00 0.000E+00

     total cpu time spent up to now is    14409.0 secs

     total energy              =   -6934.44313343 Ry
     Harris-Foulkes estimate   =   -6934.44313608 Ry
     estimated scf accuracy    <       0.00003188 Ry

     iteration #142     ecut=    40.42 Ry     beta=0.20
     Davidson diagonalization with overlap
     ethr =  3.97E-09,  avg # of iterations =  1.0

     negative rho (up, down):  5.646E+00 0.000E+00

     total cpu time spent up to now is    14500.1 secs

     total energy              =   -6934.44313175 Ry
     Harris-Foulkes estimate   =   -6934.44313376 Ry
     estimated scf accuracy    <       0.00001876 Ry

     iteration #143     ecut=    40.42 Ry     beta=0.20
     Davidson diagonalization with overlap
     c_bands:  2 eigenvalues not converged
     ethr =  3.34E-09,  avg # of iterations =  5.8

     negative rho (up, down):  5.646E+00 0.000E+00

     total cpu time spent up to now is    14603.3 secs

     total energy              =   -6934.44313392 Ry
     Harris-Foulkes estimate   =   -6934.44313390 Ry
     estimated scf accuracy    <       0.00002946 Ry

     iteration #144     ecut=    40.42 Ry     beta=0.20
     Davidson diagonalization with overlap
     ethr =  3.34E-09,  avg # of iterations =  2.5

     negative rho (up, down):  5.646E+00 0.000E+00

     total cpu time spent up to now is    14697.5 secs

     total energy              =   -6934.44313411 Ry
     Harris-Foulkes estimate   =   -6934.44313400 Ry
     estimated scf accuracy    <       0.00002949 Ry

     iteration #145     ecut=    40.42 Ry     beta=0.20
     Davidson diagonalization with overlap
     ethr =  3.34E-09,  avg # of iterations =  1.0

     negative rho (up, down):  5.646E+00 0.000E+00

     total cpu time spent up to now is    14793.2 secs

     total energy              =   -6934.44313409 Ry
     Harris-Foulkes estimate   =   -6934.44313416 Ry
     estimated scf accuracy    <       0.00003063 Ry

     iteration #146     ecut=    40.42 Ry     beta=0.20
     Davidson diagonalization with overlap
     ethr =  3.34E-09,  avg # of iterations =  1.0

     negative rho (up, down):  5.646E+00 0.000E+00

     total cpu time spent up to now is    14887.4 secs

     total energy              =   -6934.44313496 Ry
     Harris-Foulkes estimate   =   -6934.44313412 Ry
     estimated scf accuracy    <       0.00003018 Ry

     iteration #147     ecut=    40.42 Ry     beta=0.20
     Davidson diagonalization with overlap
     ethr =  3.34E-09,  avg # of iterations = 14.2

     negative rho (up, down):  5.646E+00 0.000E+00

     total cpu time spent up to now is    15006.4 secs

     total energy              =   -6934.44315372 Ry
     Harris-Foulkes estimate   =   -6934.44315718 Ry
     estimated scf accuracy    <       0.00026343 Ry

     iteration #148     ecut=    40.42 Ry     beta=0.20
     Davidson diagonalization with overlap
     ethr =  3.34E-09,  avg # of iterations =  1.0

     negative rho (up, down):  5.646E+00 0.000E+00

     total cpu time spent up to now is    15098.8 secs

     total energy              =   -6934.44314813 Ry
     Harris-Foulkes estimate   =   -6934.44315382 Ry
     estimated scf accuracy    <       0.00024492 Ry

     iteration #149     ecut=    40.42 Ry     beta=0.20
     Davidson diagonalization with overlap
     ethr =  3.34E-09,  avg # of iterations =  1.0

     negative rho (up, down):  5.646E+00 0.000E+00

     total cpu time spent up to now is    15191.8 secs

     total energy              =   -6934.44314755 Ry
     Harris-Foulkes estimate   =   -6934.44314841 Ry
     estimated scf accuracy    <       0.00020914 Ry

     iteration #150     ecut=    40.42 Ry     beta=0.20
     Davidson diagonalization with overlap
     ethr =  3.34E-09,  avg # of iterations =  1.0

     negative rho (up, down):  5.646E+00 0.000E+00

     total cpu time spent up to now is    15283.7 secs

     total energy              =   -6934.44313947 Ry
     Harris-Foulkes estimate   =   -6934.44314760 Ry
     estimated scf accuracy    <       0.00020410 Ry

     iteration #151     ecut=    40.42 Ry     beta=0.20
     Davidson diagonalization with overlap
     ethr =  3.34E-09,  avg # of iterations =  1.0

     negative rho (up, down):  5.646E+00 0.000E+00

     total cpu time spent up to now is    15378.0 secs

     total energy              =   -6934.44311963 Ry
     Harris-Foulkes estimate   =   -6934.44313990 Ry
     estimated scf accuracy    <       0.00015564 Ry

     iteration #152     ecut=    40.42 Ry     beta=0.20
     Davidson diagonalization with overlap
     ethr =  3.34E-09,  avg # of iterations =  9.2

     negative rho (up, down):  5.646E+00 0.000E+00

     total cpu time spent up to now is    15511.7 secs

     total energy              =   -6934.44313450 Ry
     Harris-Foulkes estimate   =   -6934.44314993 Ry
     estimated scf accuracy    <       0.00015715 Ry

     iteration #153     ecut=    40.42 Ry     beta=0.20
     Davidson diagonalization with overlap
     ethr =  3.34E-09,  avg # of iterations = 14.2

     negative rho (up, down):  5.646E+00 0.000E+00

     total cpu time spent up to now is    15634.1 secs

     total energy              =   -6934.44313815 Ry
     Harris-Foulkes estimate   =   -6934.44313890 Ry
     estimated scf accuracy    <       0.00007971 Ry

     iteration #154     ecut=    40.42 Ry     beta=0.20
     Davidson diagonalization with overlap
     ethr =  3.34E-09,  avg # of iterations =  1.0

     negative rho (up, down):  5.646E+00 0.000E+00

     total cpu time spent up to now is    15736.8 secs

     total energy              =   -6934.44313715 Ry
     Harris-Foulkes estimate   =   -6934.44313825 Ry
     estimated scf accuracy    <       0.00007568 Ry

     iteration #155     ecut=    40.42 Ry     beta=0.20
     Davidson diagonalization with overlap
     ethr =  3.34E-09,  avg # of iterations =  1.0

     negative rho (up, down):  5.646E+00 0.000E+00

     total cpu time spent up to now is    15830.1 secs

     total energy              =   -6934.44313763 Ry
     Harris-Foulkes estimate   =   -6934.44313727 Ry
     estimated scf accuracy    <       0.00007003 Ry

     iteration #156     ecut=    40.42 Ry     beta=0.20
     Davidson diagonalization with overlap
     ethr =  3.34E-09,  avg # of iterations =  9.8

     negative rho (up, down):  5.646E+00 0.000E+00

     total cpu time spent up to now is    15957.9 secs

     total energy              =   -6934.44312922 Ry
     Harris-Foulkes estimate   =   -6934.44315246 Ry
     estimated scf accuracy    <       0.00031057 Ry

     iteration #157     ecut=    40.42 Ry     beta=0.20
     Davidson diagonalization with overlap
     ethr =  3.34E-09,  avg # of iterations = 10.2

     negative rho (up, down):  5.646E+00 0.000E+00

     total cpu time spent up to now is    16081.5 secs

     total energy              =   -6934.44313539 Ry
     Harris-Foulkes estimate   =   -6934.44313966 Ry
     estimated scf accuracy    <       0.00007335 Ry

     iteration #158     ecut=    40.42 Ry     beta=0.20
     Davidson diagonalization with overlap
     ethr =  3.34E-09,  avg # of iterations =  1.0

     negative rho (up, down):  5.646E+00 0.000E+00

     total cpu time spent up to now is    16180.6 secs

     total energy              =   -6934.44313121 Ry
     Harris-Foulkes estimate   =   -6934.44313578 Ry
     estimated scf accuracy    <       0.00004918 Ry

     iteration #159     ecut=    40.42 Ry     beta=0.20
     Davidson diagonalization with overlap
     ethr =  3.34E-09,  avg # of iterations = 10.8

     negative rho (up, down):  5.646E+00 0.000E+00

     total cpu time spent up to now is    16293.5 secs

     total energy              =   -6934.44313952 Ry
     Harris-Foulkes estimate   =   -6934.44313731 Ry
     estimated scf accuracy    <       0.00009946 Ry

     iteration #160     ecut=    40.42 Ry     beta=0.20
     Davidson diagonalization with overlap
     c_bands:  2 eigenvalues not converged
     ethr =  3.34E-09,  avg # of iterations =  5.8

     negative rho (up, down):  5.646E+00 0.000E+00

     total cpu time spent up to now is    16395.6 secs

     total energy              =   -6934.44314730 Ry
     Harris-Foulkes estimate   =   -6934.44314413 Ry
     estimated scf accuracy    <       0.00015040 Ry

     iteration #161     ecut=    40.42 Ry     beta=0.20
     Davidson diagonalization with overlap
     c_bands:  1 eigenvalues not converged
     ethr =  3.34E-09,  avg # of iterations = 11.0

     negative rho (up, down):  5.646E+00 0.000E+00

     total cpu time spent up to now is    16520.1 secs

     total energy              =   -6934.44314019 Ry
     Harris-Foulkes estimate   =   -6934.44314959 Ry
     estimated scf accuracy    <       0.00024725 Ry

[...]

     total energy              =   -6934.47730428 Ry
     Harris-Foulkes estimate   =   -6934.47731793 Ry
     estimated scf accuracy    <       0.00027058 Ry

     iteration #  4     ecut=    40.42 Ry     beta=0.15
     Davidson diagonalization with overlap
     ethr =  4.81E-08,  avg # of iterations =  2.0

     negative rho (up, down):  5.646E+00 0.000E+00

     total cpu time spent up to now is    77005.7 secs

     total energy              =   -6934.47725110 Ry
     Harris-Foulkes estimate   =   -6934.47730810 Ry
     estimated scf accuracy    <       0.00019981 Ry

     iteration #  5     ecut=    40.42 Ry     beta=0.15
     Davidson diagonalization with overlap
     ethr =  3.56E-08,  avg # of iterations =  3.0

     negative rho (up, down):  5.646E+00 0.000E+00

     total cpu time spent up to now is    77219.7 secs

     total energy              =   -6934.47727122 Ry
     Harris-Foulkes estimate   =   -6934.47727166 Ry
     estimated scf accuracy    <       0.00007509 Ry

     iteration #  6     ecut=    40.42 Ry     beta=0.15
     Davidson diagonalization with overlap
     ethr =  1.34E-08,  avg # of iterations =  2.0

     negative rho (up, down):  5.646E+00 0.000E+00

     total cpu time spent up to now is    77420.0 secs

     total energy              =   -6934.47726401 Ry
     Harris-Foulkes estimate   =   -6934.47727264 Ry
     estimated scf accuracy    <       0.00006119 Ry

     iteration #  7     ecut=    40.42 Ry     beta=0.15
     Davidson diagonalization with overlap
     ethr =  1.09E-08,  avg # of iterations =  5.7

     negative rho (up, down):  5.646E+00 0.000E+00

     total cpu time spent up to now is    77641.1 secs

     total energy              =   -6934.47726813 Ry
     Harris-Foulkes estimate   =   -6934.47727010 Ry
     estimated scf accuracy    <       0.00006920 Ry

     iteration #  8     ecut=    40.42 Ry     beta=0.15
     Davidson diagonalization with overlap
     ethr =  1.09E-08,  avg # of iterations =  1.0

     negative rho (up, down):  5.646E+00 0.000E+00

     total cpu time spent up to now is    77838.5 secs

     total energy              =   -6934.47725637 Ry
     Harris-Foulkes estimate   =   -6934.47726873 Ry
     estimated scf accuracy    <       0.00005243 Ry

     iteration #  9     ecut=    40.42 Ry     beta=0.15
     Davidson diagonalization with overlap
     ethr =  9.33E-09,  avg # of iterations =  5.4

     negative rho (up, down):  5.646E+00 0.000E+00

     total cpu time spent up to now is    78080.2 secs

     total energy              =   -6934.47726746 Ry
     Harris-Foulkes estimate   =   -6934.47726855 Ry
     estimated scf accuracy    <       0.00009981 Ry

     iteration # 10     ecut=    40.42 Ry     beta=0.15
     Davidson diagonalization with overlap
     ethr =  9.33E-09,  avg # of iterations =  1.0

     negative rho (up, down):  5.646E+00 0.000E+00

     total cpu time spent up to now is    78282.0 secs

     total energy              =   -6934.47725765 Ry
     Harris-Foulkes estimate   =   -6934.47726760 Ry
     estimated scf accuracy    <       0.00008878 Ry

     iteration # 11     ecut=    40.42 Ry     beta=0.15
     Davidson diagonalization with overlap
     ethr =  9.33E-09,  avg # of iterations =  5.4

     negative rho (up, down):  5.646E+00 0.000E+00

     total cpu time spent up to now is    78495.9 secs

     total energy              =   -6934.47726120 Ry
     Harris-Foulkes estimate   =   -6934.47726242 Ry
     estimated scf accuracy    <       0.00002723 Ry

     iteration # 12     ecut=    40.42 Ry     beta=0.15
     Davidson diagonalization with overlap
     ethr =  4.85E-09,  avg # of iterations =  2.2

     negative rho (up, down):  5.647E+00 0.000E+00

     total cpu time spent up to now is    78694.7 secs

     total energy              =   -6934.47725881 Ry
     Harris-Foulkes estimate   =   -6934.47726206 Ry
     estimated scf accuracy    <       0.00003228 Ry

     iteration # 13     ecut=    40.42 Ry     beta=0.15
     Davidson diagonalization with overlap
     ethr =  4.85E-09,  avg # of iterations =  1.0

     negative rho (up, down):  5.647E+00 0.000E+00

     total cpu time spent up to now is    78895.0 secs

     total energy              =   -6934.47725458 Ry
     Harris-Foulkes estimate   =   -6934.47725917 Ry
     estimated scf accuracy    <       0.00002369 Ry

     iteration # 14     ecut=    40.42 Ry     beta=0.15
     Davidson diagonalization with overlap
     ethr =  4.21E-09,  avg # of iterations =  2.1

     negative rho (up, down):  5.647E+00 0.000E+00

     total cpu time spent up to now is    79098.1 secs

     total energy              =   -6934.47725328 Ry
     Harris-Foulkes estimate   =   -6934.47725552 Ry
     estimated scf accuracy    <       0.00001334 Ry

     iteration # 15     ecut=    40.42 Ry     beta=0.15
     Davidson diagonalization with overlap
     ethr =  2.37E-09,  avg # of iterations =  1.5

     negative rho (up, down):  5.647E+00 0.000E+00

     total cpu time spent up to now is    79296.6 secs

     total energy              =   -6934.47725111 Ry
     Harris-Foulkes estimate   =   -6934.47725353 Ry
     estimated scf accuracy    <       0.00000943 Ry

     iteration # 16     ecut=    40.42 Ry     beta=0.15
     Davidson diagonalization with overlap
     ethr =  1.68E-09,  avg # of iterations =  6.7

     negative rho (up, down):  5.647E+00 0.000E+00

     total cpu time spent up to now is    79529.7 secs

     total energy              =   -6934.47725156 Ry
     Harris-Foulkes estimate   =   -6934.47725285 Ry
     estimated scf accuracy    <       0.00002233 Ry

     iteration # 17     ecut=    40.42 Ry     beta=0.15
     Davidson diagonalization with overlap
     ethr =  1.68E-09,  avg # of iterations =  1.0

     negative rho (up, down):  5.647E+00 0.000E+00

     total cpu time spent up to now is    79728.8 secs

     total energy              =   -6934.47724819 Ry
     Harris-Foulkes estimate   =   -6934.47725176 Ry
     estimated scf accuracy    <       0.00001340 Ry

     iteration # 18     ecut=    40.42 Ry     beta=0.15
     Davidson diagonalization with overlap
     ethr =  1.68E-09,  avg # of iterations =  6.2

     negative rho (up, down):  5.647E+00 0.000E+00

     total cpu time spent up to now is    79998.4 secs

     total energy              =   -6934.47725279 Ry
     Harris-Foulkes estimate   =   -6934.47725348 Ry
     estimated scf accuracy    <       0.00003181 Ry

     iteration # 19     ecut=    40.42 Ry     beta=0.15
     Davidson diagonalization with overlap
     ethr =  1.68E-09,  avg # of iterations =  1.0

     negative rho (up, down):  5.647E+00 0.000E+00

     total cpu time spent up to now is    80197.6 secs

     total energy              =   -6934.47725234 Ry
     Harris-Foulkes estimate   =   -6934.47725283 Ry
     estimated scf accuracy    <       0.00002650 Ry

     iteration # 20     ecut=    40.42 Ry     beta=0.15
     Davidson diagonalization with overlap
     ethr =  1.68E-09,  avg # of iterations =  1.0

     negative rho (up, down):  5.647E+00 0.000E+00

     total cpu time spent up to now is    80392.5 secs

     total energy              =   -6934.47725245 Ry
     Harris-Foulkes estimate   =   -6934.47725238 Ry
     estimated scf accuracy    <       0.00002211 Ry

     iteration # 21     ecut=    40.42 Ry     beta=0.15
     Davidson diagonalization with overlap
     ethr =  1.68E-09,  avg # of iterations =  1.0

     negative rho (up, down):  5.647E+00 0.000E+00

     total cpu time spent up to now is    80590.8 secs

     total energy              =   -6934.47725076 Ry
     Harris-Foulkes estimate   =   -6934.47725247 Ry
     estimated scf accuracy    <       0.00002276 Ry

     iteration # 22     ecut=    40.42 Ry     beta=0.15
     Davidson diagonalization with overlap
     ethr =  1.68E-09,  avg # of iterations =  2.1

     negative rho (up, down):  5.647E+00 0.000E+00

     total cpu time spent up to now is    80790.1 secs

     total energy              =   -6934.47725004 Ry
     Harris-Foulkes estimate   =   -6934.47725100 Ry
     estimated scf accuracy    <       0.00001187 Ry

     iteration # 23     ecut=    40.42 Ry     beta=0.15
     Davidson diagonalization with overlap
     c_bands:  1 eigenvalues not converged
     ethr =  1.68E-09,  avg # of iterations =  6.5

     negative rho (up, down):  5.647E+00 0.000E+00

     total cpu time spent up to now is    81007.4 secs

     total energy              =   -6934.47725055 Ry
     Harris-Foulkes estimate   =   -6934.47725054 Ry
     estimated scf accuracy    <       0.00000340 Ry

     iteration # 24     ecut=    40.42 Ry     beta=0.15
     Davidson diagonalization with overlap
     ethr =  6.05E-10,  avg # of iterations =  5.2

     negative rho (up, down):  5.647E+00 0.000E+00

     total cpu time spent up to now is    81221.4 secs

     total energy              =   -6934.47725059 Ry
     Harris-Foulkes estimate   =   -6934.47725060 Ry
     estimated scf accuracy    <       0.00000320 Ry

     iteration # 25     ecut=    40.42 Ry     beta=0.15
     Davidson diagonalization with overlap
     ethr =  5.69E-10,  avg # of iterations =  1.0

     negative rho (up, down):  5.647E+00 0.000E+00

     total cpu time spent up to now is    81417.8 secs

     total energy              =   -6934.47725055 Ry
     Harris-Foulkes estimate   =   -6934.47725060 Ry
     estimated scf accuracy    <       0.00000303 Ry

     iteration # 26     ecut=    40.42 Ry     beta=0.15
     Davidson diagonalization with overlap
     ethr =  5.40E-10,  avg # of iterations =  1.9

     negative rho (up, down):  5.647E+00 0.000E+00

     total cpu time spent up to now is    81621.0 secs

     total energy              =   -6934.47725050 Ry
     Harris-Foulkes estimate   =   -6934.47725059 Ry
     estimated scf accuracy    <       0.00000257 Ry

     iteration # 27     ecut=    40.42 Ry     beta=0.15
     Davidson diagonalization with overlap
     ethr =  4.57E-10,  avg # of iterations =  8.0

     negative rho (up, down):  5.647E+00 0.000E+00

     total cpu time spent up to now is    81851.6 secs

     total energy              =   -6934.47725005 Ry
     Harris-Foulkes estimate   =   -6934.47725092 Ry
     estimated scf accuracy    <       0.00000870 Ry

     iteration # 28     ecut=    40.42 Ry     beta=0.15
     Davidson diagonalization with overlap
     ethr =  4.57E-10,  avg # of iterations =  7.6

     negative rho (up, down):  5.647E+00 0.000E+00

     total cpu time spent up to now is    82076.6 secs

     total energy              =   -6934.47725060 Ry
     Harris-Foulkes estimate   =   -6934.47725066 Ry
     estimated scf accuracy    <       0.00000321 Ry

     iteration # 29     ecut=    40.42 Ry     beta=0.15
     Davidson diagonalization with overlap
     ethr =  4.57E-10,  avg # of iterations =  1.1

     negative rho (up, down):  5.647E+00 0.000E+00

     total cpu time spent up to now is    82281.3 secs

     total energy              =   -6934.47725065 Ry
     Harris-Foulkes estimate   =   -6934.47725063 Ry
     estimated scf accuracy    <       0.00000315 Ry

     iteration # 30     ecut=    40.42 Ry     beta=0.15
     Davidson diagonalization with overlap
     ethr =  4.57E-10,  avg # of iterations =  1.0

     negative rho (up, down):  5.647E+00 0.000E+00

     total cpu time spent up to now is    82476.6 secs

     total energy              =   -6934.47725066 Ry
     Harris-Foulkes estimate   =   -6934.47725065 Ry
     estimated scf accuracy    <       0.00000335 Ry

     iteration # 31     ecut=    40.42 Ry     beta=0.15
     Davidson diagonalization with overlap
     ethr =  4.57E-10,  avg # of iterations =  2.6

     negative rho (up, down):  5.647E+00 0.000E+00

     total cpu time spent up to now is    82678.8 secs

     total energy              =   -6934.47725076 Ry
     Harris-Foulkes estimate   =   -6934.47725077 Ry
     estimated scf accuracy    <       0.00000429 Ry

     iteration # 32     ecut=    40.42 Ry     beta=0.15
     Davidson diagonalization with overlap
     c_bands:  2 eigenvalues not converged
     c_bands:  2 eigenvalues not converged
     ethr =  4.57E-10,  avg # of iterations =  8.2

     negative rho (up, down):  5.647E+00 0.000E+00

     total cpu time spent up to now is    82906.0 secs

     total energy              =   -6934.47725069 Ry
     Harris-Foulkes estimate   =   -6934.47725100 Ry
     estimated scf accuracy    <       0.00000751 Ry

     iteration # 33     ecut=    40.42 Ry     beta=0.15
     Davidson diagonalization with overlap
     c_bands:  1 eigenvalues not converged
     ethr =  4.57E-10,  avg # of iterations =  2.9

     negative rho (up, down):  5.647E+00 0.000E+00

     total cpu time spent up to now is    83111.0 secs

     total energy              =   -6934.47725046 Ry
     Harris-Foulkes estimate   =   -6934.47725074 Ry
     estimated scf accuracy    <       0.00000543 Ry

     iteration # 34     ecut=    40.42 Ry     beta=0.15
     Davidson diagonalization with overlap
     c_bands:  2 eigenvalues not converged
     ethr =  4.57E-10,  avg # of iterations =  2.9

     negative rho (up, down):  5.647E+00 0.000E+00

     total cpu time spent up to now is    83313.5 secs

     total energy              =   -6934.47725006 Ry
     Harris-Foulkes estimate   =   -6934.47725050 Ry
     estimated scf accuracy    <       0.00000341 Ry

     iteration # 35     ecut=    40.42 Ry     beta=0.15
     Davidson diagonalization with overlap
     c_bands:  1 eigenvalues not converged
     ethr =  4.57E-10,  avg # of iterations =  7.3

     negative rho (up, down):  5.647E+00 0.000E+00

     total cpu time spent up to now is    83541.8 secs

     total energy              =   -6934.47725031 Ry
     Harris-Foulkes estimate   =   -6934.47725039 Ry
     estimated scf accuracy    <       0.00000273 Ry

     iteration # 36     ecut=    40.42 Ry     beta=0.15
     Davidson diagonalization with overlap
     ethr =  4.57E-10,  avg # of iterations =  1.1

     negative rho (up, down):  5.647E+00 0.000E+00

     total cpu time spent up to now is    83739.1 secs

     total energy              =   -6934.47725009 Ry
     Harris-Foulkes estimate   =   -6934.47725032 Ry
     estimated scf accuracy    <       0.00000233 Ry

     iteration # 37     ecut=    40.42 Ry     beta=0.15
     Davidson diagonalization with overlap
     ethr =  4.14E-10,  avg # of iterations =  2.5

     negative rho (up, down):  5.647E+00 0.000E+00

     total cpu time spent up to now is    83939.8 secs

     total energy              =   -6934.47725010 Ry
     Harris-Foulkes estimate   =   -6934.47725015 Ry
     estimated scf accuracy    <       0.00000127 Ry

     iteration # 38     ecut=    40.42 Ry     beta=0.15
     Davidson diagonalization with overlap
     c_bands:  2 eigenvalues not converged
     ethr =  2.26E-10,  avg # of iterations =  3.6

     negative rho (up, down):  5.647E+00 0.000E+00

     total cpu time spent up to now is    84149.6 secs

     total energy              =   -6934.47725012 Ry
     Harris-Foulkes estimate   =   -6934.47725013 Ry
     estimated scf accuracy    <       0.00000105 Ry

     iteration # 39     ecut=    40.42 Ry     beta=0.15
     Davidson diagonalization with overlap
     ethr =  1.87E-10,  avg # of iterations =  1.4

     negative rho (up, down):  5.647E+00 0.000E+00

     total cpu time spent up to now is    84347.5 secs

     total energy              =   -6934.47725012 Ry
     Harris-Foulkes estimate   =   -6934.47725012 Ry
     estimated scf accuracy    <       0.00000098 Ry

     iteration # 40     ecut=    40.42 Ry     beta=0.15
     Davidson diagonalization with overlap
     ethr =  1.74E-10,  avg # of iterations =  1.0

     negative rho (up, down):  5.647E+00 0.000E+00

     total cpu time spent up to now is    84540.7 secs

     total energy              =   -6934.47725010 Ry
     Harris-Foulkes estimate   =   -6934.47725012 Ry
     estimated scf accuracy    <       0.00000096 Ry

     iteration # 41     ecut=    40.42 Ry     beta=0.15
     Davidson diagonalization with overlap
     c_bands:  1 eigenvalues not converged
     ethr =  1.71E-10,  avg # of iterations =  2.9

     negative rho (up, down):  5.647E+00 0.000E+00

     total cpu time spent up to now is    84741.4 secs

     total energy              =   -6934.47725014 Ry
     Harris-Foulkes estimate   =   -6934.47725016 Ry
     estimated scf accuracy    <       0.00000081 Ry

     iteration # 42     ecut=    40.42 Ry     beta=0.15
     Davidson diagonalization with overlap
     c_bands:  1 eigenvalues not converged
     ethr =  1.44E-10,  avg # of iterations =  3.0

     negative rho (up, down):  5.647E+00 0.000E+00

     total cpu time spent up to now is    84945.5 secs

     total energy              =   -6934.47725018 Ry
     Harris-Foulkes estimate   =   -6934.47725038 Ry
     estimated scf accuracy    <       0.00000337 Ry

     iteration # 43     ecut=    40.42 Ry     beta=0.15
     Davidson diagonalization with overlap
     c_bands:  2 eigenvalues not converged
     ethr =  1.44E-10,  avg # of iterations =  4.2

     negative rho (up, down):  5.647E+00 0.000E+00

     total cpu time spent up to now is    85153.3 secs

     total energy              =   -6934.47725016 Ry
     Harris-Foulkes estimate   =   -6934.47725021 Ry
     estimated scf accuracy    <       0.00000173 Ry

     iteration # 44     ecut=    40.42 Ry     beta=0.15
     Davidson diagonalization with overlap
     ethr =  1.44E-10,  avg # of iterations =  3.1

     negative rho (up, down):  5.647E+00 0.000E+00

     total cpu time spent up to now is    85359.9 secs

     total energy              =   -6934.47725008 Ry
     Harris-Foulkes estimate   =   -6934.47725018 Ry
     estimated scf accuracy    <       0.00000148 Ry

     iteration # 45     ecut=    40.42 Ry     beta=0.15
     Davidson diagonalization with overlap
     ethr =  1.44E-10,  avg # of iterations =  1.8

     negative rho (up, down):  5.647E+00 0.000E+00

     total cpu time spent up to now is    85557.7 secs

     total energy              =   -6934.47724997 Ry
     Harris-Foulkes estimate   =   -6934.47725009 Ry
     estimated scf accuracy    <       0.00000091 Ry

     iteration # 46     ecut=    40.42 Ry     beta=0.15
     Davidson diagonalization with overlap
     ethr =  1.44E-10,  avg # of iterations =  8.5

     negative rho (up, down):  5.647E+00 0.000E+00

     total cpu time spent up to now is    85790.3 secs

     total energy              =   -6934.47725065 Ry
     Harris-Foulkes estimate   =   -6934.47725049 Ry
     estimated scf accuracy    <       0.00000457 Ry

     iteration # 47     ecut=    40.42 Ry     beta=0.15
     Davidson diagonalization with overlap
     ethr =  1.44E-10,  avg # of iterations =  1.0

     negative rho (up, down):  5.647E+00 0.000E+00

     total cpu time spent up to now is    85991.2 secs

     total energy              =   -6934.47725072 Ry
     Harris-Foulkes estimate   =   -6934.47725066 Ry
     estimated scf accuracy    <       0.00000574 Ry

     iteration # 48     ecut=    40.42 Ry     beta=0.15
     Davidson diagonalization with overlap
     ethr =  1.44E-10,  avg # of iterations =  1.0

     negative rho (up, down):  5.647E+00 0.000E+00

     total cpu time spent up to now is    86189.9 secs

     total energy              =   -6934.47725084 Ry
     Harris-Foulkes estimate   =   -6934.47725072 Ry
     estimated scf accuracy    <       0.00000630 Ry

     iteration # 49     ecut=    40.42 Ry     beta=0.15
     Davidson diagonalization with overlap
     ethr =  1.44E-10,  avg # of iterations =  1.0

     negative rho (up, down):  5.647E+00 0.000E+00

     total cpu time spent up to now is    86390.2 secs

     total energy              =   -6934.47725116 Ry
     Harris-Foulkes estimate   =   -6934.47725085 Ry
     estimated scf accuracy    <       0.00000722 Ry

     iteration # 50     ecut=    40.42 Ry     beta=0.15
     Davidson diagonalization with overlap
