  python dir          : /gpfs/pace1/project/chbe-medford/medford-share/gits/frozen/ben_espresso_8_24_2017/espresso
  espresso dir        : /nv/hp22/amedford6/medford-shared/builds/espresso/5.1.r11289-pybeef/intel-16.0+mvapich2-2.2+mkl-11.3/espresso-5.1.r11289-pybeef/bin
  pseudo dir          : /gpfs/pace1/project/chbe-medford/medford-share/data/pseudos/SSSP_eff_PBE
  ase-espresso py git : GITVERSION



     Program PWSCF v.5.1rc2 starts on  9Feb2019 at 22:48: 6 

     This program is part of the open-source Quantum ESPRESSO suite
     for quantum simulation of materials; please cite
         "P. Giannozzi et al., J. Phys.:Condens. Matter 21 395502 (2009);
          URL http://www.quantum-espresso.org", 
     in publications or presentations arising from this work. More details at
     http://www.quantum-espresso.org/quote

     Parallel version (MPI), running on    12 processors
     R & G space division:  proc/nbgrp/npool/nimage =      12
     Reading input from pw.inp
     Message from routine read_cards :
     DEPRECATED: no units specified in CELL_PARAMETERS card

     Current dimensions of program PWSCF are:
     Max number of different atomic species (ntypx) = 10
     Max number of k-points (npk) =  40000
     Max angular momentum in pseudopotentials (lmaxx) =  3

     IMPORTANT: XC functional enforced from input :
     Exchange-correlation      = PBE ( 1  4  3  4 0)
     Any further DFT definition will be discarded
     Please, verify this is what you really want


     Subspace diagonalization in iterative solution of the eigenvalue problem:
     a serial algorithm will be used

 
     Parallelization info
     --------------------
     sticks:   dense  smooth     PW     G-vecs:    dense   smooth      PW
     Min         706     346     91               154640    52846    7207
     Max         707     347     92               154655    52876    7218
     Sum        8479    4153   1099              1855749   634381   86559
 


     bravais-lattice index     =            0
     lattice parameter (alat)  =       1.8897  a.u.
     unit-cell volume          =   18274.0366 (a.u.)^3
     number of atoms/cell      =           47
     number of atomic types    =            4
     number of electrons       =       658.00
     number of Kohn-Sham states=          339
     kinetic-energy cutoff     =      40.4243  Ry
     charge density cutoff     =     330.7439  Ry
     convergence threshold     =      7.3E-07
     mixing beta               =       0.2000
     number of iterations used =            8  local-TF  mixing
     Exchange-correlation      = PBE ( 1  4  3  4 0)
     nstep                     =           50


     celldm(1)=   1.889726  celldm(2)=   0.000000  celldm(3)=   0.000000
     celldm(4)=   0.000000  celldm(5)=   0.000000  celldm(6)=   0.000000

     crystal axes: (cart. coord. in units of alat)
               a(1) = (  10.224481   0.000000   0.000000 )  
               a(2) = (  -5.112241   8.854660   0.000000 )  
               a(3) = (   0.000000   0.000000  29.910570 )  

     reciprocal axes: (cart. coord. in units 2 pi/alat)
               b(1) = (  0.097804  0.056467  0.000000 )  
               b(2) = (  0.000000  0.112935  0.000000 )  
               b(3) = (  0.000000  0.000000  0.033433 )  


     PseudoPot. # 1 for Cu read from file:
     /gpfs/pace1/project/chbe-medford/medford-share/data/pseudos/SSSP_eff_PBE/Cu.UPF
     MD5 check sum: 6e991ff952a84172a2a52a1c1e996048
     Pseudo is Ultrasoft + core correction, Zval = 19.0
     Generated by new atomic code, or converted to UPF format
     Using radial grid of  867 points,  6 beta functions with: 
                l(1) =   0
                l(2) =   0
                l(3) =   1
                l(4) =   1
                l(5) =   2
                l(6) =   2
     Q(r) pseudized with  8 coefficients,  rinner =    1.150   1.150   1.150
                                                       1.150   1.150

     PseudoPot. # 2 for O  read from file:
     /gpfs/pace1/project/chbe-medford/medford-share/data/pseudos/SSSP_eff_PBE/O.UPF
     MD5 check sum: 734c27235a0248c51dbae37a1fbe46ec
     Pseudo is Ultrasoft + core correction, Zval =  6.0
     Generated by new atomic code, or converted to UPF format
     Using radial grid of  737 points,  5 beta functions with: 
                l(1) =   0
                l(2) =   0
                l(3) =   1
                l(4) =   1
                l(5) =   2
     Q(r) pseudized with  8 coefficients,  rinner =    0.900   0.900   0.900
                                                       0.900   0.900

     PseudoPot. # 3 for C  read from file:
     /gpfs/pace1/project/chbe-medford/medford-share/data/pseudos/SSSP_eff_PBE/C.UPF
     MD5 check sum: d1aef80898a10debaa0f26306b886e00
     Pseudo is Ultrasoft + core correction, Zval =  4.0
     Generated by new atomic code, or converted to UPF format
     Using radial grid of  721 points,  4 beta functions with: 
                l(1) =   0
                l(2) =   0
                l(3) =   1
                l(4) =   1
     Q(r) pseudized with  8 coefficients,  rinner =    1.100   1.100   1.100


     PseudoPot. # 4 for  H read from file:
     /gpfs/pace1/project/chbe-medford/medford-share/data/pseudos/SSSP_eff_PBE/H.UPF
     MD5 check sum: 36633979392af7100e6f6632747262d3
     Pseudo is Ultrasoft, Zval =  1.0
     Generated using "atomic" code by A. Dal Corso  v.5.0.99 svn rev. 10869
     Using radial grid of  929 points,  2 beta functions with: 
                l(1) =   0
                l(2) =   0
     Q(r) pseudized with 0 coefficients 


     atomic species   valence    mass     pseudopotential
        Cu1           19.00    63.54600     Cu( 1.00)
        O1             6.00    15.99940     O ( 1.00)
        C1             4.00    12.01100     C ( 1.00)
        H1             1.00     1.00794      H( 1.00)

     No symmetry found



   Cartesian axes

     site n.     atom                  positions (alat units)
         1           Cu1 tau(   1) = (   0.0000000   0.0000000  10.0000000  )
         2           Cu1 tau(   2) = (   1.2780602   0.7378884  12.0870635  )
         3           Cu1 tau(   3) = (  -1.2780602   2.2136651  10.0000000  )
         4           Cu1 tau(   4) = (   0.0000000   2.9515535  12.0870635  )
         5           Cu1 tau(   5) = (  -2.5561203   4.4273302  10.0000000  )
         6           Cu1 tau(   6) = (  -1.2780602   5.1652186  12.0870635  )
         7           Cu1 tau(   7) = (  -3.8341805   6.6409954  10.0000000  )
         8           Cu1 tau(   8) = (  -2.5561203   7.3788837  12.0870635  )
         9           Cu1 tau(   9) = (   2.5561203   0.0000000  10.0000000  )
        10           Cu1 tau(  10) = (   3.8341805   0.7378884  12.0870635  )
        11           Cu1 tau(  11) = (   1.2780602   2.2136651  10.0000000  )
        12           Cu1 tau(  12) = (   2.5561203   2.9515535  12.0870635  )
        13           Cu1 tau(  13) = (   0.0000000   4.4273302  10.0000000  )
        14           Cu1 tau(  14) = (   1.2780602   5.1652186  12.0870635  )
        15           Cu1 tau(  15) = (  -1.2780602   6.6409954  10.0000000  )
        16           Cu1 tau(  16) = (   0.0000000   7.3788837  12.0870635  )
        17           Cu1 tau(  17) = (   5.1122406   0.0000000  10.0000000  )
        18           Cu1 tau(  18) = (   6.3903008   0.7378884  12.0870635  )
        19           Cu1 tau(  19) = (   3.8341805   2.2136651  10.0000000  )
        20           Cu1 tau(  20) = (   5.1122406   2.9515535  12.0870635  )
        21           Cu1 tau(  21) = (   2.5561203   4.4273302  10.0000000  )
        22           Cu1 tau(  22) = (   3.8341805   5.1652186  12.0870635  )
        23           Cu1 tau(  23) = (   1.2780602   6.6409954  10.0000000  )
        24           Cu1 tau(  24) = (   2.5561203   7.3788837  12.0870635  )
        25           Cu1 tau(  25) = (   7.6683609   0.0000000  10.0000000  )
        26           Cu1 tau(  26) = (   8.9464211   0.7378884  12.0870635  )
        27           Cu1 tau(  27) = (   6.3903008   2.2136651  10.0000000  )
        28           Cu1 tau(  28) = (   7.6683609   2.9515535  12.0870635  )
        29           Cu1 tau(  29) = (   5.1122406   4.4273302  10.0000000  )
        30           Cu1 tau(  30) = (   6.3903008   5.1652186  12.0870635  )
        31           Cu1 tau(  31) = (   3.8341805   6.6409954  10.0000000  )
        32           Cu1 tau(  32) = (   5.1122406   7.3788837  12.0870635  )
        33           O1  tau(  33) = (   1.2780000   5.1650000  14.5870635  )
        34           O1  tau(  34) = (   3.2910351   6.4445000  18.1623425  )
        35           O1  tau(  35) = (   0.4572300   4.8121000  16.6792481  )
        36           O1  tau(  36) = (   3.3572155   4.9979000  19.9105704  )
        37           C1  tau(  37) = (   2.8466743   4.5481000  16.2258871  )
        38           C1  tau(  38) = (   3.0142348   4.1726000  17.6717104  )
        39           C1  tau(  39) = (   1.3984576   4.8387000  15.9005021  )
        40           C1  tau(  40) = (   3.2360857   5.2096000  18.7135673  )
        41           C1  tau(  41) = (   2.9421491   2.8998000  18.0904543  )
        42           H1  tau(  42) = (   3.4602465   5.4163000  15.9648253  )
        43           H1  tau(  43) = (   3.1707627   3.7170000  15.5868247  )
        44           H1  tau(  44) = (   2.7680862   2.0932000  17.3849686  )
        45           H1  tau(  45) = (   3.0505197   2.6176000  19.1323576  )
        46           H1  tau(  46) = (   0.3495546   5.3687000  14.3449490  )
        47           H1  tau(  47) = (   3.4379563   7.1417000  18.8366176  )

     number of k points=     4  Fermi-Dirac smearing, width (Ry)=  0.0073
                       cart. coord. in units 2pi/alat
        k(    1) = (   0.0000000   0.0000000   0.0000000), wk =   0.5000000
        k(    2) = (   0.0000000  -0.0564674   0.0000000), wk =   0.5000000
        k(    3) = (   0.0489022  -0.0282337   0.0000000), wk =   0.5000000
        k(    4) = (  -0.0489022  -0.0282337   0.0000000), wk =   0.5000000

     Dense  grid:  1855749 G-vectors     FFT dimensions: ( 120, 120, 360)

     Smooth grid:   634381 G-vectors     FFT dimensions: (  80,  80, 240)

     Largest allocated arrays     est. size (Mb)     dimensions
        Kohn-Sham Wavefunctions        34.55 Mb     (    6680,  339)
        NL pseudopotentials            69.31 Mb     (    6680,  680)
        Each V/rho on FFT grid          6.59 Mb     (  432000)
        Each G-vector array             1.18 Mb     (  154647)
        G-vector shells                 0.37 Mb     (   49044)
     Largest temporary arrays     est. size (Mb)     dimensions
        Auxiliary wavefunctions       138.22 Mb     (    6680, 1356)
        Each subspace H/S matrix       28.06 Mb     (    1356, 1356)
        Each <psi_i|beta_j> matrix      3.52 Mb     (     680,  339)
        Arrays for rho mixing          52.73 Mb     (  432000,    8)

     Initial potential from superposition of free atoms
     Check: negative starting charge=   -0.010029

     starting charge  625.99967, renormalised to  658.00000

     negative rho (up, down):  1.054E-02 0.000E+00
     Starting wfc are  458 randomized atomic wfcs

     total cpu time spent up to now is       49.2 secs

     per-process dynamical memory:   390.3 Mb

     Self-consistent Calculation

     iteration #  1     ecut=    40.42 Ry     beta=0.20
     Davidson diagonalization with overlap
     ethr =  1.00E-02,  avg # of iterations =  4.2

     negative rho (up, down):  2.791E-01 0.000E+00

     total cpu time spent up to now is      186.3 secs

     total energy              =  -13128.57067272 Ry
     Harris-Foulkes estimate   =  -13159.63766593 Ry
     estimated scf accuracy    <     718.53179258 Ry

     iteration #  2     ecut=    40.42 Ry     beta=0.20
     Davidson diagonalization with overlap
     ethr =  1.00E-02,  avg # of iterations =  3.2

     negative rho (up, down):  6.519E-01 0.000E+00

     total cpu time spent up to now is      277.9 secs

     total energy              =  -13089.57807121 Ry
     Harris-Foulkes estimate   =  -13133.08565425 Ry
     estimated scf accuracy    <     496.38466069 Ry

     iteration #  3     ecut=    40.42 Ry     beta=0.20
     Davidson diagonalization with overlap
     ethr =  1.00E-02,  avg # of iterations = 11.5

     negative rho (up, down):  5.742E-01 0.000E+00

     total cpu time spent up to now is      448.9 secs

     total energy              =  -13116.43531308 Ry
     Harris-Foulkes estimate   =  -13120.60522364 Ry
     estimated scf accuracy    <      44.66805092 Ry

     iteration #  4     ecut=    40.42 Ry     beta=0.20
     Davidson diagonalization with overlap
     ethr =  6.79E-03,  avg # of iterations =  1.0

     negative rho (up, down):  4.496E-01 0.000E+00

     total cpu time spent up to now is      535.8 secs

     total energy              =  -13112.23742469 Ry
     Harris-Foulkes estimate   =  -13117.06772690 Ry
     estimated scf accuracy    <      35.36550305 Ry

     iteration #  5     ecut=    40.42 Ry     beta=0.20
     Davidson diagonalization with overlap
     ethr =  5.37E-03,  avg # of iterations =  6.2

     negative rho (up, down):  4.716E-01 0.000E+00

     total cpu time spent up to now is      637.6 secs

     total energy              =  -13114.78573938 Ry
     Harris-Foulkes estimate   =  -13116.41932208 Ry
     estimated scf accuracy    <      34.15839679 Ry

     iteration #  6     ecut=    40.42 Ry     beta=0.20
     Davidson diagonalization with overlap
     ethr =  5.19E-03,  avg # of iterations =  1.8

     negative rho (up, down):  4.824E-01 0.000E+00

     total cpu time spent up to now is      725.6 secs

     total energy              =  -13114.00887865 Ry
     Harris-Foulkes estimate   =  -13115.33361250 Ry
     estimated scf accuracy    <      16.65918836 Ry

     iteration #  7     ecut=    40.42 Ry     beta=0.20
     Davidson diagonalization with overlap
     ethr =  2.53E-03,  avg # of iterations =  3.0

     negative rho (up, down):  4.529E-01 0.000E+00

     total cpu time spent up to now is      818.9 secs

     total energy              =  -13113.70650548 Ry
     Harris-Foulkes estimate   =  -13114.43387966 Ry
     estimated scf accuracy    <       6.86814538 Ry

     iteration #  8     ecut=    40.42 Ry     beta=0.20
     Davidson diagonalization with overlap
     ethr =  1.04E-03,  avg # of iterations =  6.8

     negative rho (up, down):  4.352E-01 0.000E+00

     total cpu time spent up to now is      921.9 secs

     total energy              =  -13114.37531482 Ry
     Harris-Foulkes estimate   =  -13114.56012285 Ry
     estimated scf accuracy    <       2.20233033 Ry

     iteration #  9     ecut=    40.42 Ry     beta=0.20
     Davidson diagonalization with overlap
     ethr =  3.35E-04,  avg # of iterations =  2.2

     negative rho (up, down):  3.645E-01 0.000E+00

     total cpu time spent up to now is     1013.9 secs

     total energy              =  -13113.89188259 Ry
     Harris-Foulkes estimate   =  -13114.41035085 Ry
     estimated scf accuracy    <       1.78598763 Ry

     iteration # 10     ecut=    40.42 Ry     beta=0.20
     Davidson diagonalization with overlap
     ethr =  2.71E-04,  avg # of iterations =  4.0

     negative rho (up, down):  3.101E-01 0.000E+00

     total cpu time spent up to now is     1112.2 secs

     total energy              =  -13114.72498670 Ry
     Harris-Foulkes estimate   =  -13114.78892550 Ry
     estimated scf accuracy    <      32.57572837 Ry

     iteration # 11     ecut=    40.42 Ry     beta=0.20
     Davidson diagonalization with overlap
     ethr =  2.71E-04,  avg # of iterations =  2.0

     negative rho (up, down):  2.879E-01 0.000E+00

     total cpu time spent up to now is     1201.0 secs

     total energy              =  -13113.84714332 Ry
     Harris-Foulkes estimate   =  -13114.75792813 Ry
     estimated scf accuracy    <      33.64297412 Ry

     iteration # 12     ecut=    40.42 Ry     beta=0.20
     Davidson diagonalization with overlap
     ethr =  2.71E-04,  avg # of iterations =  2.0

     negative rho (up, down):  2.865E-01 0.000E+00

     total cpu time spent up to now is     1291.0 secs

     total energy              =  -13113.95821270 Ry
     Harris-Foulkes estimate   =  -13114.02703354 Ry
     estimated scf accuracy    <      13.02892736 Ry

     iteration # 13     ecut=    40.42 Ry     beta=0.20
     Davidson diagonalization with overlap
     ethr =  2.71E-04,  avg # of iterations =  1.0

     negative rho (up, down):  2.730E-01 0.000E+00

     total cpu time spent up to now is     1379.2 secs

     total energy              =  -13113.82483948 Ry
     Harris-Foulkes estimate   =  -13113.96571152 Ry
     estimated scf accuracy    <      10.15275903 Ry

     iteration # 14     ecut=    40.42 Ry     beta=0.20
     Davidson diagonalization with overlap
     ethr =  2.71E-04,  avg # of iterations =  2.0

     negative rho (up, down):  2.405E-01 0.000E+00

     total cpu time spent up to now is     1466.8 secs

     total energy              =  -13113.35182445 Ry
     Harris-Foulkes estimate   =  -13113.84127624 Ry
     estimated scf accuracy    <       6.03804699 Ry

     iteration # 15     ecut=    40.42 Ry     beta=0.20
     Davidson diagonalization with overlap
     ethr =  2.71E-04,  avg # of iterations =  3.8

     negative rho (up, down):  2.274E-01 0.000E+00

     total cpu time spent up to now is     1561.2 secs

     total energy              =  -13113.74722702 Ry
     Harris-Foulkes estimate   =  -13113.77650078 Ry
     estimated scf accuracy    <       0.55454577 Ry

     iteration # 16     ecut=    40.42 Ry     beta=0.20
     Davidson diagonalization with overlap
     ethr =  8.43E-05,  avg # of iterations =  2.0

     negative rho (up, down):  2.108E-01 0.000E+00

     total cpu time spent up to now is     1650.7 secs

     total energy              =  -13113.68609033 Ry
     Harris-Foulkes estimate   =  -13113.75159092 Ry
     estimated scf accuracy    <       0.55049259 Ry

     iteration # 17     ecut=    40.42 Ry     beta=0.20
     Davidson diagonalization with overlap
     ethr =  8.37E-05,  avg # of iterations =  3.0

     negative rho (up, down):  2.000E-01 0.000E+00

     total cpu time spent up to now is     1742.6 secs

     total energy              =  -13113.68621580 Ry
     Harris-Foulkes estimate   =  -13113.69784976 Ry
     estimated scf accuracy    <       0.41451353 Ry

     iteration # 18     ecut=    40.42 Ry     beta=0.20
     Davidson diagonalization with overlap
     ethr =  6.30E-05,  avg # of iterations =  1.0

     negative rho (up, down):  1.543E-01 0.000E+00

     total cpu time spent up to now is     1829.6 secs

     total energy              =  -13113.57403135 Ry
     Harris-Foulkes estimate   =  -13113.68754467 Ry
     estimated scf accuracy    <       0.36620885 Ry

     iteration # 19     ecut=    40.42 Ry     beta=0.20
     Davidson diagonalization with overlap
     ethr =  5.57E-05,  avg # of iterations =  4.0

     negative rho (up, down):  1.598E-01 0.000E+00

     total cpu time spent up to now is     1925.3 secs

     total energy              =  -13113.59349310 Ry
     Harris-Foulkes estimate   =  -13113.60180866 Ry
     estimated scf accuracy    <       0.13919351 Ry

     iteration # 20     ecut=    40.42 Ry     beta=0.20
     Davidson diagonalization with overlap
     ethr =  2.12E-05,  avg # of iterations =  2.0

     negative rho (up, down):  2.289E-01 0.000E+00

     total cpu time spent up to now is     2018.9 secs

     total energy              =  -13113.57893355 Ry
     Harris-Foulkes estimate   =  -13113.59466319 Ry
     estimated scf accuracy    <       0.12217898 Ry

     iteration # 21     ecut=    40.42 Ry     beta=0.20
     Davidson diagonalization with overlap
     ethr =  1.86E-05,  avg # of iterations =  3.0

     negative rho (up, down):  2.347E-01 0.000E+00

     total cpu time spent up to now is     2114.1 secs

     total energy              =  -13113.57933597 Ry
     Harris-Foulkes estimate   =  -13113.58428929 Ry
     estimated scf accuracy    <       0.15192168 Ry

     iteration # 22     ecut=    40.42 Ry     beta=0.20
     Davidson diagonalization with overlap
     ethr =  1.86E-05,  avg # of iterations =  1.0

     negative rho (up, down):  2.042E-01 0.000E+00

     total cpu time spent up to now is     2204.3 secs

     total energy              =  -13113.57532640 Ry
     Harris-Foulkes estimate   =  -13113.58170682 Ry
     estimated scf accuracy    <       0.09020001 Ry

     iteration # 23     ecut=    40.42 Ry     beta=0.20
     Davidson diagonalization with overlap
     ethr =  1.37E-05,  avg # of iterations =  2.0

     negative rho (up, down):  1.374E-01 0.000E+00

     total cpu time spent up to now is     2296.0 secs

     total energy              =  -13113.56241638 Ry
     Harris-Foulkes estimate   =  -13113.57589038 Ry
     estimated scf accuracy    <       0.07879478 Ry

     iteration # 24     ecut=    40.42 Ry     beta=0.20
     Davidson diagonalization with overlap
     ethr =  1.20E-05,  avg # of iterations =  3.0

     negative rho (up, down):  1.136E-01 0.000E+00

     total cpu time spent up to now is     2389.1 secs

     total energy              =  -13113.55421433 Ry
     Harris-Foulkes estimate   =  -13113.56391934 Ry
     estimated scf accuracy    <       0.05628499 Ry

     iteration # 25     ecut=    40.42 Ry     beta=0.20
     Davidson diagonalization with overlap
     ethr =  8.55E-06,  avg # of iterations =  2.0

     negative rho (up, down):  1.080E-01 0.000E+00

     total cpu time spent up to now is     2480.7 secs

     total energy              =  -13113.55198712 Ry
     Harris-Foulkes estimate   =  -13113.55586607 Ry
     estimated scf accuracy    <       0.03822822 Ry

     iteration # 26     ecut=    40.42 Ry     beta=0.20
     Davidson diagonalization with overlap
     ethr =  5.81E-06,  avg # of iterations =  2.0

     negative rho (up, down):  9.122E-02 0.000E+00

     total cpu time spent up to now is     2568.8 secs

     total energy              =  -13113.54417965 Ry
     Harris-Foulkes estimate   =  -13113.55230709 Ry
     estimated scf accuracy    <       0.03233045 Ry

     iteration # 27     ecut=    40.42 Ry     beta=0.20
     Davidson diagonalization with overlap
     ethr =  4.91E-06,  avg # of iterations =  2.0

     negative rho (up, down):  6.042E-02 0.000E+00

     total cpu time spent up to now is     2656.9 secs

     total energy              =  -13113.54218798 Ry
     Harris-Foulkes estimate   =  -13113.54512411 Ry
     estimated scf accuracy    <       0.02034910 Ry

     iteration # 28     ecut=    40.42 Ry     beta=0.20
     Davidson diagonalization with overlap
     ethr =  3.09E-06,  avg # of iterations =  3.0

     negative rho (up, down):  4.763E-02 0.000E+00

     total cpu time spent up to now is     2750.6 secs

     total energy              =  -13113.54032694 Ry
     Harris-Foulkes estimate   =  -13113.54263994 Ry
     estimated scf accuracy    <       0.01600734 Ry

     iteration # 29     ecut=    40.42 Ry     beta=0.20
     Davidson diagonalization with overlap
     ethr =  2.43E-06,  avg # of iterations =  2.8

     negative rho (up, down):  4.880E-02 0.000E+00

     total cpu time spent up to now is     2840.9 secs

     total energy              =  -13113.53944938 Ry
     Harris-Foulkes estimate   =  -13113.54055665 Ry
     estimated scf accuracy    <       0.01344206 Ry

     iteration # 30     ecut=    40.42 Ry     beta=0.20
     Davidson diagonalization with overlap
     ethr =  2.04E-06,  avg # of iterations =  2.0

     negative rho (up, down):  1.541E-02 0.000E+00

     total cpu time spent up to now is     2930.5 secs

     total energy              =  -13113.53722041 Ry
     Harris-Foulkes estimate   =  -13113.53954380 Ry
     estimated scf accuracy    <       0.01226221 Ry

     iteration # 31     ecut=    40.42 Ry     beta=0.20
     Davidson diagonalization with overlap
     ethr =  1.86E-06,  avg # of iterations =  2.2

     negative rho (up, down):  9.040E-03 0.000E+00

     total cpu time spent up to now is     3023.8 secs

     total energy              =  -13113.53517315 Ry
     Harris-Foulkes estimate   =  -13113.53740030 Ry
     estimated scf accuracy    <       0.00870213 Ry

     iteration # 32     ecut=    40.42 Ry     beta=0.20
     Davidson diagonalization with overlap
     ethr =  1.32E-06,  avg # of iterations =  2.0

     negative rho (up, down):  5.475E-03 0.000E+00

     total cpu time spent up to now is     3115.1 secs

     total energy              =  -13113.53424332 Ry
     Harris-Foulkes estimate   =  -13113.53533391 Ry
     estimated scf accuracy    <       0.00653500 Ry

     iteration # 33     ecut=    40.42 Ry     beta=0.20
     Davidson diagonalization with overlap
     ethr =  9.93E-07,  avg # of iterations =  3.0

     negative rho (up, down):  1.276E-02 0.000E+00

     total cpu time spent up to now is     3208.5 secs

     total energy              =  -13113.53334184 Ry
     Harris-Foulkes estimate   =  -13113.53438135 Ry
     estimated scf accuracy    <       0.00521297 Ry

     iteration # 34     ecut=    40.42 Ry     beta=0.20
     Davidson diagonalization with overlap
     ethr =  7.92E-07,  avg # of iterations =  3.0

     negative rho (up, down):  1.416E-02 0.000E+00

     total cpu time spent up to now is     3305.6 secs

     total energy              =  -13113.53343515 Ry
     Harris-Foulkes estimate   =  -13113.53350730 Ry
     estimated scf accuracy    <       0.00357547 Ry

     iteration # 35     ecut=    40.42 Ry     beta=0.20
     Davidson diagonalization with overlap
     ethr =  5.43E-07,  avg # of iterations =  3.0

     negative rho (up, down):  2.423E-02 0.000E+00

     total cpu time spent up to now is     3402.7 secs

     total energy              =  -13113.53361150 Ry
     Harris-Foulkes estimate   =  -13113.53360088 Ry
     estimated scf accuracy    <       0.00164213 Ry

     iteration # 36     ecut=    40.42 Ry     beta=0.20
     Davidson diagonalization with overlap
     ethr =  2.50E-07,  avg # of iterations =  2.0

     negative rho (up, down):  2.016E-02 0.000E+00

     total cpu time spent up to now is     3495.7 secs

     total energy              =  -13113.53347634 Ry
     Harris-Foulkes estimate   =  -13113.53364839 Ry
     estimated scf accuracy    <       0.00099782 Ry

     iteration # 37     ecut=    40.42 Ry     beta=0.20
     Davidson diagonalization with overlap
     ethr =  1.52E-07,  avg # of iterations =  3.0

     negative rho (up, down):  1.614E-02 0.000E+00

     total cpu time spent up to now is     3595.6 secs

     total energy              =  -13113.53355249 Ry
     Harris-Foulkes estimate   =  -13113.53351225 Ry
     estimated scf accuracy    <       0.00050245 Ry

     iteration # 38     ecut=    40.42 Ry     beta=0.20
     Davidson diagonalization with overlap
     ethr =  7.64E-08,  avg # of iterations =  2.8

     negative rho (up, down):  1.182E-02 0.000E+00

     total cpu time spent up to now is     3694.2 secs

     total energy              =  -13113.53359524 Ry
     Harris-Foulkes estimate   =  -13113.53356315 Ry
     estimated scf accuracy    <       0.00025412 Ry

     iteration # 39     ecut=    40.42 Ry     beta=0.20
     Davidson diagonalization with overlap
     ethr =  3.86E-08,  avg # of iterations =  3.0

     negative rho (up, down):  8.381E-03 0.000E+00

     total cpu time spent up to now is     3796.9 secs

     total energy              =  -13113.53360827 Ry
     Harris-Foulkes estimate   =  -13113.53360378 Ry
     estimated scf accuracy    <       0.00013968 Ry

     iteration # 40     ecut=    40.42 Ry     beta=0.20
     Davidson diagonalization with overlap
     ethr =  2.12E-08,  avg # of iterations =  2.0

     negative rho (up, down):  5.859E-03 0.000E+00

     total cpu time spent up to now is     3891.0 secs

     total energy              =  -13113.53360954 Ry
     Harris-Foulkes estimate   =  -13113.53361138 Ry
     estimated scf accuracy    <       0.00008080 Ry

     iteration # 41     ecut=    40.42 Ry     beta=0.20
     Davidson diagonalization with overlap
     ethr =  1.23E-08,  avg # of iterations =  3.0

     negative rho (up, down):  5.399E-03 0.000E+00

     total cpu time spent up to now is     3991.6 secs

     total energy              =  -13113.53361032 Ry
     Harris-Foulkes estimate   =  -13113.53361237 Ry
     estimated scf accuracy    <       0.00003758 Ry

     iteration # 42     ecut=    40.42 Ry     beta=0.20
     Davidson diagonalization with overlap
     ethr =  5.71E-09,  avg # of iterations =  3.2

     negative rho (up, down):  5.163E-03 0.000E+00

     total cpu time spent up to now is     4096.4 secs

     total energy              =  -13113.53361656 Ry
     Harris-Foulkes estimate   =  -13113.53361220 Ry
     estimated scf accuracy    <       0.00001987 Ry

     iteration # 43     ecut=    40.42 Ry     beta=0.20
     Davidson diagonalization with overlap
     ethr =  3.02E-09,  avg # of iterations =  3.2

     negative rho (up, down):  5.078E-03 0.000E+00

     total cpu time spent up to now is     4198.8 secs

     total energy              =  -13113.53361681 Ry
     Harris-Foulkes estimate   =  -13113.53361774 Ry
     estimated scf accuracy    <       0.00001046 Ry

     iteration # 44     ecut=    40.42 Ry     beta=0.20
     Davidson diagonalization with overlap
     ethr =  1.59E-09,  avg # of iterations =  3.2

     negative rho (up, down):  4.469E-03 0.000E+00

     total cpu time spent up to now is     4294.0 secs

     total energy              =  -13113.53361646 Ry
     Harris-Foulkes estimate   =  -13113.53361728 Ry
     estimated scf accuracy    <       0.00000573 Ry

     iteration # 45     ecut=    40.42 Ry     beta=0.20
     Davidson diagonalization with overlap
     ethr =  8.71E-10,  avg # of iterations =  3.0

     negative rho (up, down):  4.435E-03 0.000E+00

     total cpu time spent up to now is     4392.3 secs

     total energy              =  -13113.53361636 Ry
     Harris-Foulkes estimate   =  -13113.53361675 Ry
     estimated scf accuracy    <       0.00000332 Ry

     iteration # 46     ecut=    40.42 Ry     beta=0.20
     Davidson diagonalization with overlap
     ethr =  5.05E-10,  avg # of iterations =  3.0

     negative rho (up, down):  4.343E-03 0.000E+00

     total cpu time spent up to now is     4498.9 secs

     total energy              =  -13113.53361638 Ry
     Harris-Foulkes estimate   =  -13113.53361648 Ry
     estimated scf accuracy    <       0.00000227 Ry

     iteration # 47     ecut=    40.42 Ry     beta=0.20
     Davidson diagonalization with overlap
     ethr =  3.45E-10,  avg # of iterations =  2.0

     negative rho (up, down):  4.296E-03 0.000E+00

     total cpu time spent up to now is     4595.1 secs

     total energy              =  -13113.53361584 Ry
     Harris-Foulkes estimate   =  -13113.53361642 Ry
     estimated scf accuracy    <       0.00000175 Ry

     iteration # 48     ecut=    40.42 Ry     beta=0.20
     Davidson diagonalization with overlap
     ethr =  2.67E-10,  avg # of iterations =  2.2

     negative rho (up, down):  4.556E-03 0.000E+00

     total cpu time spent up to now is     4698.0 secs

     total energy              =  -13113.53361534 Ry
     Harris-Foulkes estimate   =  -13113.53361588 Ry
     estimated scf accuracy    <       0.00000135 Ry

     iteration # 49     ecut=    40.42 Ry     beta=0.20
     Davidson diagonalization with overlap
     ethr =  2.05E-10,  avg # of iterations =  2.0

     negative rho (up, down):  4.809E-03 0.000E+00

     total cpu time spent up to now is     4790.6 secs

     total energy              =  -13113.53361496 Ry
     Harris-Foulkes estimate   =  -13113.53361536 Ry
     estimated scf accuracy    <       0.00000092 Ry

     iteration # 50     ecut=    40.42 Ry     beta=0.20
     Davidson diagonalization with overlap
     ethr =  1.40E-10,  avg # of iterations =  2.8

     negative rho (up, down):  4.691E-03 0.000E+00

     total cpu time spent up to now is     4875.9 secs

     End of self-consistent calculation

          k = 0.0000 0.0000 0.0000 ( 79441 PWs)   bands (ev):

  -114.0235-114.0008-113.9830-113.9773-113.9754-113.9738-113.9724-113.9718
  -113.9706-113.9697-113.9693-113.9683-113.9677-113.9673-113.9671-113.9668
  -113.9664-113.9661-113.9657-113.9655-113.9654-113.9646-113.9639-113.9637
  -113.9625-113.9618-113.9612-113.9604-113.9600-113.9588-113.9584-113.9580
   -71.4686 -71.4643 -71.4483 -71.4410 -71.4399 -71.4384 -71.4361 -71.4349
   -71.4326 -71.4310 -71.4288 -71.4272 -71.4256 -71.4251 -71.4233 -71.4229
   -71.4225 -71.4219 -71.4175 -71.4131 -71.4078 -71.4064 -71.4043 -71.4033
   -71.4021 -71.4005 -71.3992 -71.3979 -71.3973 -71.3966 -71.3965 -71.3958
   -71.3956 -71.3951 -71.3948 -71.3945 -71.3902 -71.3894 -71.3888 -71.3883
   -71.3880 -71.3874 -71.3854 -71.3840 -71.3838 -71.3773 -71.3766 -71.3747
   -71.3729 -71.3720 -71.3716 -71.3705 -71.3702 -71.3695 -71.3649 -71.3640
   -71.3638 -71.3623 -71.3610 -71.3605 -71.3603 -71.3600 -71.3591 -71.3520
   -71.3519 -71.3440 -71.3331 -71.3273 -71.3232 -71.3221 -71.3217 -71.3192
   -71.3149 -71.3097 -71.3075 -71.3071 -71.3059 -71.3055 -71.3049 -71.3039
   -71.2969 -71.2923 -71.2910 -71.2899 -71.2888 -71.2879 -71.2871 -71.2867
   -71.2859 -71.2846 -71.2831 -71.2824 -71.2817 -71.2809 -71.2801 -71.2782
   -24.9654 -24.5277 -22.6114 -22.1318 -17.6358 -15.4308 -13.7202 -12.7930
   -10.8287  -9.6931  -9.5099  -9.4345  -9.0708  -8.6267  -8.3311  -7.8810
    -7.8651  -7.8617  -7.8601  -7.8591  -7.8579  -7.7928  -7.4297  -7.0288
    -6.9302  -6.8687  -6.4720  -5.9947  -5.9930  -5.9882  -5.9679  -5.9661
    -5.9640  -5.8840  -5.8270  -5.8269  -5.8254  -5.8251  -5.8249  -5.8224
    -5.7545  -5.7522  -5.7473  -5.7460  -5.7451  -5.7401  -5.5141  -5.5108
    -5.5095  -5.2493  -5.2317  -5.2286  -5.2283  -5.2269  -5.2265  -5.2111
    -5.1787  -5.1759  -5.1756  -5.1740  -5.1735  -5.1566  -4.9797  -4.9762
    -4.9756  -4.9750  -4.9707  -4.9621  -4.7263  -4.6816  -4.6810  -4.6771
    -4.6474  -4.6439  -4.6426  -4.6392  -4.6390  -4.6382  -4.5714  -4.5676
    -4.5641  -4.5623  -4.5614  -4.5589  -4.5552  -4.5343  -4.5253  -4.5237
    -4.5215  -4.5193  -4.5143  -4.4374  -4.4310  -4.4308  -4.4293  -4.4269
    -4.4268  -4.4267  -4.4252  -4.4240  -4.4233  -4.4178  -4.4114  -4.4110
    -4.4100  -4.3339  -4.3339  -4.2728  -4.2669  -4.2662  -4.2637  -4.2600
    -4.2548  -4.2397  -4.2379  -4.2361  -4.2350  -4.2340  -4.2333  -4.1010
    -4.1005  -4.0988  -4.0021  -3.9999  -3.9977  -3.9961  -3.9956  -3.9948
    -3.9043  -3.8136  -3.7930  -3.7920  -3.7886  -3.7880  -3.7872  -3.7861
    -3.7802  -3.7789  -3.7776  -3.7735  -3.7626  -3.7588  -3.7536  -3.7486
    -3.7219  -3.6159  -3.6153  -3.6076  -3.6044  -3.6021  -3.6003  -3.5993
    -3.5989  -3.5977  -3.5877  -3.5866  -3.5828  -3.5817  -3.5811  -3.5781
    -3.5118  -3.5072  -3.5066  -3.5053  -3.5040  -3.4992  -3.4985  -3.4959
    -3.4385  -3.3466  -3.3460  -3.3443  -3.2961  -3.2671  -3.2641  -3.2589
    -3.2572  -3.2568  -3.2562  -3.2560  -3.2549  -3.1720  -3.1705  -3.1694
    -3.1685  -3.1681  -3.1596  -3.0635  -3.0627  -3.0608  -3.0105  -3.0100
    -3.0085  -2.3343  -2.3121  -2.3071  -2.3046  -2.3015  -2.1851  -1.5719
    -1.3887  -1.3853  -1.3839  -1.3803  -1.3797  -1.3699  -1.2331  -1.2314
    -1.2293  -0.1245  -0.1198

          k = 0.0000-0.0565 0.0000 ( 79262 PWs)   bands (ev):

  -114.0235-114.0008-113.9830-113.9769-113.9755-113.9749-113.9722-113.9710
  -113.9704-113.9695-113.9689-113.9686-113.9680-113.9678-113.9677-113.9664
  -113.9662-113.9660-113.9659-113.9657-113.9647-113.9645-113.9641-113.9639
  -113.9624-113.9619-113.9610-113.9604-113.9602-113.9589-113.9582-113.9580
   -71.4679 -71.4629 -71.4436 -71.4384 -71.4379 -71.4346 -71.4338 -71.4328
   -71.4316 -71.4314 -71.4304 -71.4297 -71.4291 -71.4268 -71.4244 -71.4238
   -71.4215 -71.4211 -71.4202 -71.4185 -71.4149 -71.4146 -71.4127 -71.4120
   -71.4106 -71.4096 -71.4031 -71.4015 -71.3990 -71.3959 -71.3941 -71.3910
   -71.3902 -71.3898 -71.3882 -71.3867 -71.3855 -71.3850 -71.3839 -71.3835
   -71.3804 -71.3801 -71.3797 -71.3786 -71.3783 -71.3773 -71.3765 -71.3731
   -71.3728 -71.3720 -71.3716 -71.3707 -71.3700 -71.3693 -71.3681 -71.3676
   -71.3669 -71.3652 -71.3648 -71.3638 -71.3627 -71.3611 -71.3598 -71.3549
   -71.3544 -71.3436 -71.3329 -71.3279 -71.3253 -71.3225 -71.3186 -71.3155
   -71.3136 -71.3132 -71.3117 -71.3082 -71.3059 -71.3059 -71.3030 -71.3005
   -71.2973 -71.2924 -71.2913 -71.2904 -71.2892 -71.2884 -71.2869 -71.2864
   -71.2847 -71.2844 -71.2835 -71.2827 -71.2815 -71.2811 -71.2801 -71.2781
   -24.9654 -24.5277 -22.6114 -22.1318 -17.6358 -15.4307 -13.7201 -12.7929
   -10.8288  -9.5337  -9.4358  -9.2118  -9.1844  -9.0389  -8.6268  -8.3315
    -8.2671  -8.2567  -7.8196  -7.4306  -6.9733  -6.8975  -6.8171  -6.8155
    -6.8149  -6.7797  -6.5916  -6.5842  -6.4978  -6.4940  -6.4639  -5.9595
    -5.9581  -5.9565  -5.9556  -5.9001  -5.8819  -5.8736  -5.7181  -5.7135
    -5.6546  -5.6499  -5.6488  -5.6466  -5.4882  -5.4847  -5.4046  -5.3960
    -5.3948  -5.3911  -5.3893  -5.3874  -5.3858  -5.3852  -5.3706  -5.3590
    -5.3286  -5.3274  -5.2156  -5.1951  -5.1855  -5.1469  -5.1439  -5.1422
    -5.1181  -4.8057  -4.8025  -4.7494  -4.7416  -4.7244  -4.6202  -4.6149
    -4.6120  -4.6091  -4.6079  -4.6076  -4.6065  -4.6060  -4.6036  -4.6013
    -4.5957  -4.5940  -4.5847  -4.5835  -4.5632  -4.5593  -4.5541  -4.5504
    -4.5475  -4.5415  -4.5131  -4.5109  -4.4854  -4.4841  -4.4442  -4.4415
    -4.3794  -4.3737  -4.3716  -4.3701  -4.3057  -4.3000  -4.2523  -4.2502
    -4.2476  -4.2445  -4.2431  -4.2420  -4.2401  -4.2391  -4.2373  -4.2362
    -4.1857  -4.1813  -4.0609  -4.0535  -4.0472  -4.0458  -4.0441  -4.0418
    -4.0352  -4.0197  -4.0087  -4.0059  -3.9866  -3.9831  -3.9793  -3.9783
    -3.9721  -3.9700  -3.8747  -3.8627  -3.8617  -3.8383  -3.8297  -3.8291
    -3.8274  -3.8152  -3.7892  -3.7632  -3.7305  -3.7081  -3.6667  -3.6606
    -3.6564  -3.6554  -3.6509  -3.6481  -3.6376  -3.6135  -3.6115  -3.5779
    -3.5554  -3.5430  -3.4708  -3.4693  -3.4674  -3.4656  -3.4423  -3.4390
    -3.4363  -3.4340  -3.3956  -3.3937  -3.3915  -3.3909  -3.3901  -3.3886
    -3.3746  -3.3701  -3.3281  -3.3268  -3.3015  -3.2987  -3.2976  -3.2865
    -3.2853  -3.2831  -3.2801  -3.2582  -3.2529  -3.2433  -3.2402  -3.2179
    -3.2122  -3.2043  -3.2015  -3.1655  -3.1590  -3.1580  -3.1570  -3.1172
    -3.0604  -3.0184  -3.0161  -3.0148  -3.0132  -2.5508  -2.4933  -1.4019
    -1.3961  -1.3918  -1.3903  -1.2704  -1.2577  -1.2423  -1.1932  -0.7429
    -0.7361  -0.6921  -0.6370

          k = 0.0489-0.0282 0.0000 ( 79262 PWs)   bands (ev):

  -114.0235-114.0008-113.9830-113.9770-113.9755-113.9745-113.9725-113.9717
  -113.9698-113.9691-113.9689-113.9684-113.9682-113.9679-113.9675-113.9671
  -113.9665-113.9661-113.9654-113.9652-113.9651-113.9646-113.9640-113.9637
  -113.9625-113.9617-113.9613-113.9605-113.9601-113.9587-113.9584-113.9580
   -71.4671 -71.4634 -71.4454 -71.4409 -71.4375 -71.4352 -71.4337 -71.4318
   -71.4312 -71.4306 -71.4304 -71.4290 -71.4268 -71.4250 -71.4238 -71.4231
   -71.4224 -71.4222 -71.4196 -71.4187 -71.4146 -71.4141 -71.4136 -71.4126
   -71.4118 -71.4091 -71.4051 -71.4013 -71.3982 -71.3972 -71.3948 -71.3913
   -71.3905 -71.3891 -71.3883 -71.3869 -71.3858 -71.3854 -71.3831 -71.3825
   -71.3806 -71.3802 -71.3796 -71.3781 -71.3779 -71.3772 -71.3762 -71.3731
   -71.3722 -71.3720 -71.3717 -71.3709 -71.3701 -71.3689 -71.3685 -71.3681
   -71.3666 -71.3656 -71.3650 -71.3636 -71.3618 -71.3614 -71.3604 -71.3550
   -71.3544 -71.3437 -71.3318 -71.3288 -71.3261 -71.3215 -71.3192 -71.3154
   -71.3145 -71.3126 -71.3102 -71.3080 -71.3071 -71.3049 -71.3047 -71.3006
   -71.2956 -71.2930 -71.2921 -71.2899 -71.2897 -71.2880 -71.2871 -71.2855
   -71.2852 -71.2844 -71.2838 -71.2825 -71.2818 -71.2809 -71.2801 -71.2781
   -24.9654 -24.5277 -22.6114 -22.1318 -17.6358 -15.4307 -13.7202 -12.7929
   -10.8286  -9.5339  -9.4359  -9.2153  -9.1832  -9.0346  -8.6267  -8.3396
    -8.2638  -8.2530  -7.8200  -7.4303  -6.9781  -6.8987  -6.8172  -6.8157
    -6.8147  -6.7801  -6.5955  -6.5742  -6.4942  -6.4909  -6.4666  -5.9599
    -5.9577  -5.9570  -5.9559  -5.9047  -5.8881  -5.8698  -5.7162  -5.7121
    -5.6548  -5.6515  -5.6506  -5.6480  -5.4863  -5.4845  -5.4022  -5.3969
    -5.3960  -5.3909  -5.3893  -5.3885  -5.3865  -5.3844  -5.3630  -5.3591
    -5.3297  -5.3270  -5.2116  -5.1975  -5.1920  -5.1475  -5.1448  -5.1406
    -5.1211  -4.8059  -4.8018  -4.7446  -4.7423  -4.7255  -4.6170  -4.6131
    -4.6119  -4.6108  -4.6086  -4.6079  -4.6064  -4.6059  -4.6032  -4.5986
    -4.5960  -4.5943  -4.5846  -4.5816  -4.5656  -4.5572  -4.5559  -4.5506
    -4.5490  -4.5448  -4.5116  -4.5090  -4.4855  -4.4827  -4.4446  -4.4407
    -4.3776  -4.3739  -4.3718  -4.3680  -4.3060  -4.3038  -4.2527  -4.2508
    -4.2465  -4.2445  -4.2436  -4.2421  -4.2408  -4.2392  -4.2378  -4.2366
    -4.1847  -4.1821  -4.0584  -4.0550  -4.0481  -4.0457  -4.0439  -4.0420
    -4.0377  -4.0212  -4.0093  -4.0049  -3.9863  -3.9821  -3.9805  -3.9767
    -3.9753  -3.9706  -3.8747  -3.8618  -3.8601  -3.8361  -3.8298  -3.8267
    -3.8244  -3.8058  -3.7976  -3.7695  -3.7311  -3.7129  -3.6658  -3.6619
    -3.6572  -3.6547  -3.6511  -3.6477  -3.6369  -3.6133  -3.6118  -3.5745
    -3.5552  -3.5415  -3.4718  -3.4710  -3.4666  -3.4661  -3.4400  -3.4396
    -3.4361  -3.4356  -3.3969  -3.3929  -3.3925  -3.3916  -3.3901  -3.3860
    -3.3737  -3.3713  -3.3300  -3.3259  -3.3010  -3.2991  -3.2967  -3.2875
    -3.2838  -3.2834  -3.2806  -3.2570  -3.2539  -3.2438  -3.2412  -3.2172
    -3.2128  -3.2040  -3.2020  -3.1619  -3.1611  -3.1580  -3.1569  -3.1203
    -3.0566  -3.0187  -3.0167  -3.0148  -3.0113  -2.5434  -2.5048  -1.4001
    -1.3934  -1.3927  -1.3911  -1.2741  -1.2561  -1.2420  -1.1937  -0.7616
    -0.7402  -0.7042  -0.5876

          k =-0.0489-0.0282 0.0000 ( 79262 PWs)   bands (ev):

  -114.0235-114.0008-113.9830-113.9768-113.9756-113.9751-113.9720-113.9710
  -113.9702-113.9695-113.9691-113.9687-113.9683-113.9677-113.9670-113.9669
  -113.9663-113.9661-113.9656-113.9653-113.9651-113.9648-113.9639-113.9637
  -113.9624-113.9618-113.9611-113.9604-113.9601-113.9589-113.9583-113.9580
   -71.4674 -71.4633 -71.4445 -71.4404 -71.4372 -71.4348 -71.4328 -71.4328
   -71.4320 -71.4306 -71.4298 -71.4293 -71.4280 -71.4260 -71.4244 -71.4236
   -71.4225 -71.4208 -71.4206 -71.4184 -71.4145 -71.4142 -71.4131 -71.4123
   -71.4115 -71.4100 -71.4047 -71.4009 -71.3974 -71.3965 -71.3951 -71.3918
   -71.3897 -71.3894 -71.3881 -71.3867 -71.3865 -71.3853 -71.3830 -71.3824
   -71.3804 -71.3798 -71.3793 -71.3790 -71.3776 -71.3769 -71.3767 -71.3732
   -71.3730 -71.3723 -71.3712 -71.3710 -71.3698 -71.3691 -71.3684 -71.3681
   -71.3672 -71.3656 -71.3651 -71.3630 -71.3626 -71.3608 -71.3601 -71.3553
   -71.3539 -71.3437 -71.3316 -71.3291 -71.3265 -71.3214 -71.3179 -71.3151
   -71.3142 -71.3132 -71.3114 -71.3091 -71.3068 -71.3052 -71.3026 -71.2997
   -71.2977 -71.2929 -71.2913 -71.2905 -71.2892 -71.2877 -71.2870 -71.2861
   -71.2850 -71.2845 -71.2838 -71.2826 -71.2814 -71.2811 -71.2801 -71.2782
   -24.9654 -24.5277 -22.6114 -22.1318 -17.6358 -15.4307 -13.7202 -12.7929
   -10.8288  -9.5334  -9.4363  -9.2115  -9.1862  -9.0369  -8.6250  -8.3369
    -8.2655  -8.2546  -7.8200  -7.4302  -6.9776  -6.8956  -6.8177  -6.8158
    -6.8150  -6.7802  -6.5968  -6.5761  -6.4960  -6.4911  -6.4650  -5.9601
    -5.9577  -5.9574  -5.9553  -5.8992  -5.8886  -5.8723  -5.7166  -5.7131
    -5.6539  -5.6505  -5.6500  -5.6485  -5.4867  -5.4845  -5.4030  -5.3972
    -5.3949  -5.3905  -5.3893  -5.3884  -5.3860  -5.3849  -5.3650  -5.3575
    -5.3298  -5.3278  -5.2139  -5.1965  -5.1944  -5.1471  -5.1438  -5.1425
    -5.1156  -4.8058  -4.8022  -4.7498  -4.7415  -4.7231  -4.6176  -4.6139
    -4.6128  -4.6106  -4.6082  -4.6076  -4.6061  -4.6052  -4.6026  -4.6002
    -4.5957  -4.5946  -4.5849  -4.5824  -4.5640  -4.5581  -4.5545  -4.5507
    -4.5487  -4.5445  -4.5123  -4.5097  -4.4858  -4.4831  -4.4442  -4.4410
    -4.3774  -4.3741  -4.3737  -4.3673  -4.3054  -4.3019  -4.2524  -4.2502
    -4.2468  -4.2454  -4.2439  -4.2419  -4.2408  -4.2401  -4.2372  -4.2360
    -4.1860  -4.1811  -4.0606  -4.0535  -4.0476  -4.0446  -4.0434  -4.0425
    -4.0367  -4.0209  -4.0098  -4.0054  -3.9860  -3.9822  -3.9785  -3.9784
    -3.9749  -3.9712  -3.8745  -3.8620  -3.8604  -3.8372  -3.8303  -3.8293
    -3.8248  -3.8141  -3.7894  -3.7606  -3.7302  -3.7113  -3.6660  -3.6608
    -3.6575  -3.6539  -3.6524  -3.6487  -3.6374  -3.6132  -3.6113  -3.5786
    -3.5548  -3.5449  -3.4708  -3.4697  -3.4674  -3.4655  -3.4423  -3.4391
    -3.4369  -3.4335  -3.3966  -3.3948  -3.3907  -3.3901  -3.3898  -3.3873
    -3.3749  -3.3703  -3.3287  -3.3264  -3.3017  -3.2986  -3.2978  -3.2862
    -3.2847  -3.2831  -3.2811  -3.2584  -3.2527  -3.2441  -3.2401  -3.2179
    -3.2122  -3.2045  -3.2013  -3.1633  -3.1619  -3.1571  -3.1566  -3.1178
    -3.0587  -3.0186  -3.0162  -3.0148  -3.0129  -2.5480  -2.4968  -1.3996
    -1.3961  -1.3921  -1.3901  -1.2745  -1.2527  -1.2478  -1.1940  -0.7548
    -0.7352  -0.6920  -0.6136

     the Fermi energy is    -1.4649 ev

!    total energy              =  -13113.53361473 Ry
     Harris-Foulkes estimate   =  -13113.53361497 Ry
     estimated scf accuracy    <       0.00000072 Ry

     The total energy is the sum of the following terms:

     one-electron contribution = -113986.46753412 Ry
     hartree contribution      =   56981.56698343 Ry
     xc contribution           =   -1291.73849533 Ry
     ewald contribution        =   45183.16673874 Ry
     smearing contrib. (-TS)   =      -0.06130745 Ry

     convergence has been achieved in  50 iterations

     Forces acting on atoms (Ry/au):


     negative rho (up, down):  4.691E-03 0.000E+00
     atom    1 type  1   force =     0.00005657   -0.00005162    0.00059649
     atom    2 type  1   force =    -0.00010200    0.00026301   -0.00067888
     atom    3 type  1   force =    -0.00003941    0.00022105    0.00053300
     atom    4 type  1   force =    -0.00132652   -0.00158795   -0.00240697
     atom    5 type  1   force =     0.00017977   -0.00006778    0.00052464
     atom    6 type  1   force =    -0.00141792    0.00068104   -0.00204179
     atom    7 type  1   force =    -0.00008207   -0.00000743    0.00105772
     atom    8 type  1   force =     0.00030939   -0.00026289   -0.00076247
     atom    9 type  1   force =    -0.00001931    0.00006431    0.00099298
     atom   10 type  1   force =     0.00010734    0.00021782   -0.00058477
     atom   11 type  1   force =     0.00009825    0.00014915    0.00082444
     atom   12 type  1   force =     0.00144973   -0.00266388   -0.00289971
     atom   13 type  1   force =     0.00019007   -0.00008748    0.00121913
     atom   14 type  1   force =     0.00284167   -0.00116317   -0.00914206
     atom   15 type  1   force =     0.00001548   -0.00004233    0.00004493
     atom   16 type  1   force =    -0.00170288    0.00082458   -0.00187098
     atom   17 type  1   force =     0.00023989   -0.00019022    0.00070590
     atom   18 type  1   force =    -0.00011457   -0.00023788   -0.00081686
     atom   19 type  1   force =    -0.00018233    0.00033594    0.00003672
     atom   20 type  1   force =    -0.00041806    0.00017135   -0.00053729
     atom   21 type  1   force =     0.00005004    0.00008378    0.00191519
     atom   22 type  1   force =     0.00301805    0.00009313   -0.00307780
     atom   23 type  1   force =     0.00024686   -0.00009047    0.00164251
     atom   24 type  1   force =     0.00128024    0.00215375   -0.00248653
     atom   25 type  1   force =    -0.00029111   -0.00014713    0.00045239
     atom   26 type  1   force =     0.00011077   -0.00005925   -0.00048583
     atom   27 type  1   force =     0.00011579   -0.00003082    0.00115502
     atom   28 type  1   force =     0.00016137    0.00022201   -0.00072096
     atom   29 type  1   force =    -0.00035647   -0.00004874    0.00017312
     atom   30 type  1   force =    -0.00007139   -0.00009380   -0.00069700
     atom   31 type  1   force =    -0.00016230   -0.00018513    0.00082194
     atom   32 type  1   force =    -0.00023240   -0.00007162   -0.00050401
     atom   33 type  2   force =     0.00580675    0.00538700   -0.01288956
     atom   34 type  2   force =     0.00153159    0.02837896   -0.01808991
     atom   35 type  2   force =     0.02371574   -0.00039704   -0.02616701
     atom   36 type  2   force =    -0.00037544    0.00516333   -0.01355074
     atom   37 type  3   force =    -0.00361999   -0.00885937    0.01567654
     atom   38 type  3   force =     0.00397461   -0.01905075    0.01058695
     atom   39 type  3   force =    -0.02569273    0.00767531    0.03353066
     atom   40 type  3   force =     0.00143200   -0.00165604    0.02838162
     atom   41 type  3   force =     0.00160777   -0.00024085   -0.00918420
     atom   42 type  4   force =    -0.00034292    0.00426541   -0.00497344
     atom   43 type  4   force =     0.00186623   -0.00199895   -0.00528808
     atom   44 type  4   force =    -0.00038588   -0.00534060   -0.00647126
     atom   45 type  4   force =     0.00050758    0.00612442    0.00719343
     atom   46 type  4   force =    -0.01227462    0.00002773    0.01237095
     atom   47 type  4   force =    -0.00170327   -0.01786990    0.00589185

     Total force =     0.086456     Total SCF correction =     0.001816
 !ASE

     Writing output data file calc.save
     Check: negative starting charge=   -0.010029
     NEW-OLD atomic charge density approx. for the potential
     Check: negative starting charge=   -0.009997

     negative rho (up, down):  5.467E-03 0.000E+00

     total cpu time spent up to now is     4952.8 secs

     per-process dynamical memory:   420.1 Mb

     Self-consistent Calculation

     iteration #  1     ecut=    40.42 Ry     beta=0.20
     Davidson diagonalization with overlap
     ethr =  1.40E-10,  avg # of iterations = 13.0

     negative rho (up, down):  4.039E-03 0.000E+00

     total cpu time spent up to now is     5246.9 secs

     total energy              =  -13113.35465562 Ry
     Harris-Foulkes estimate   =  -13113.36563031 Ry
     estimated scf accuracy    <       0.09487573 Ry

     iteration #  2     ecut=    40.42 Ry     beta=0.20
     Davidson diagonalization with overlap
     ethr =  1.44E-05,  avg # of iterations =  2.0

     negative rho (up, down):  3.813E-03 0.000E+00

     total cpu time spent up to now is     5342.4 secs

     total energy              =  -13113.32238122 Ry
     Harris-Foulkes estimate   =  -13113.35502494 Ry
     estimated scf accuracy    <       0.06850428 Ry

     iteration #  3     ecut=    40.42 Ry     beta=0.20
     Davidson diagonalization with overlap
     ethr =  1.04E-05,  avg # of iterations =  4.0

     negative rho (up, down):  2.650E-03 0.000E+00

     total cpu time spent up to now is     5449.3 secs

     total energy              =  -13113.32993087 Ry
     Harris-Foulkes estimate   =  -13113.33105803 Ry
     estimated scf accuracy    <       0.01023410 Ry

     iteration #  4     ecut=    40.42 Ry     beta=0.20
     Davidson diagonalization with overlap
     ethr =  1.56E-06,  avg # of iterations =  3.0

     negative rho (up, down):  2.026E-03 0.000E+00

     total cpu time spent up to now is     5553.9 secs

     total energy              =  -13113.32892983 Ry
     Harris-Foulkes estimate   =  -13113.33023239 Ry
     estimated scf accuracy    <       0.00695388 Ry

     iteration #  5     ecut=    40.42 Ry     beta=0.20
     Davidson diagonalization with overlap
     ethr =  1.06E-06,  avg # of iterations =  3.0

     negative rho (up, down):  1.503E-03 0.000E+00

     total cpu time spent up to now is     5666.0 secs

     total energy              =  -13113.32871332 Ry
     Harris-Foulkes estimate   =  -13113.32923935 Ry
     estimated scf accuracy    <       0.00436728 Ry

     iteration #  6     ecut=    40.42 Ry     beta=0.20
     Davidson diagonalization with overlap
     ethr =  6.64E-07,  avg # of iterations =  2.0

     negative rho (up, down):  1.204E-03 0.000E+00

     total cpu time spent up to now is     5775.0 secs

     total energy              =  -13113.32848036 Ry
     Harris-Foulkes estimate   =  -13113.32882835 Ry
     estimated scf accuracy    <       0.00313705 Ry

     iteration #  7     ecut=    40.42 Ry     beta=0.20
     Davidson diagonalization with overlap
     ethr =  4.77E-07,  avg # of iterations =  3.0

     negative rho (up, down):  1.071E-03 0.000E+00

     total cpu time spent up to now is     5880.8 secs

     total energy              =  -13113.32823332 Ry
     Harris-Foulkes estimate   =  -13113.32857384 Ry
     estimated scf accuracy    <       0.00258842 Ry

     iteration #  8     ecut=    40.42 Ry     beta=0.20
     Davidson diagonalization with overlap
     ethr =  3.93E-07,  avg # of iterations =  2.0

     negative rho (up, down):  9.932E-04 0.000E+00

     total cpu time spent up to now is     5978.5 secs

     total energy              =  -13113.32817135 Ry
     Harris-Foulkes estimate   =  -13113.32830918 Ry
     estimated scf accuracy    <       0.00222632 Ry

     iteration #  9     ecut=    40.42 Ry     beta=0.20
     Davidson diagonalization with overlap
     ethr =  3.38E-07,  avg # of iterations =  1.2

     negative rho (up, down):  1.628E-03 0.000E+00

     total cpu time spent up to now is     6071.3 secs

     total energy              =  -13113.32782503 Ry
     Harris-Foulkes estimate   =  -13113.32819648 Ry
     estimated scf accuracy    <       0.00192546 Ry

     iteration # 10     ecut=    40.42 Ry     beta=0.20
     Davidson diagonalization with overlap
     ethr =  2.93E-07,  avg # of iterations =  3.0

     negative rho (up, down):  4.197E-03 0.000E+00

     total cpu time spent up to now is     6171.8 secs

     total energy              =  -13113.32764252 Ry
     Harris-Foulkes estimate   =  -13113.32791936 Ry
     estimated scf accuracy    <       0.00149211 Ry

     iteration # 11     ecut=    40.42 Ry     beta=0.20
     Davidson diagonalization with overlap
     ethr =  2.27E-07,  avg # of iterations =  3.0

     negative rho (up, down):  8.618E-03 0.000E+00

     total cpu time spent up to now is     6268.6 secs

     total energy              =  -13113.32746809 Ry
     Harris-Foulkes estimate   =  -13113.32770468 Ry
     estimated scf accuracy    <       0.00086982 Ry

     iteration # 12     ecut=    40.42 Ry     beta=0.20
     Davidson diagonalization with overlap
     ethr =  1.32E-07,  avg # of iterations =  3.0

     negative rho (up, down):  8.580E-03 0.000E+00

     total cpu time spent up to now is     6369.8 secs

     total energy              =  -13113.32748664 Ry
     Harris-Foulkes estimate   =  -13113.32753622 Ry
     estimated scf accuracy    <       0.00027867 Ry

     iteration # 13     ecut=    40.42 Ry     beta=0.20
     Davidson diagonalization with overlap
     ethr =  4.24E-08,  avg # of iterations =  3.0

     negative rho (up, down):  7.560E-03 0.000E+00

     total cpu time spent up to now is     6466.7 secs

     total energy              =  -13113.32744382 Ry
     Harris-Foulkes estimate   =  -13113.32749518 Ry
     estimated scf accuracy    <       0.00014245 Ry

     iteration # 14     ecut=    40.42 Ry     beta=0.20
     Davidson diagonalization with overlap
     ethr =  2.16E-08,  avg # of iterations =  3.0

     negative rho (up, down):  6.613E-03 0.000E+00

     total cpu time spent up to now is     6574.4 secs

     total energy              =  -13113.32742076 Ry
     Harris-Foulkes estimate   =  -13113.32745269 Ry
     estimated scf accuracy    <       0.00006551 Ry

     iteration # 15     ecut=    40.42 Ry     beta=0.20
     Davidson diagonalization with overlap
     ethr =  9.96E-09,  avg # of iterations =  3.0

     negative rho (up, down):  5.815E-03 0.000E+00

     total cpu time spent up to now is     6672.2 secs

     total energy              =  -13113.32741324 Ry
     Harris-Foulkes estimate   =  -13113.32742566 Ry
     estimated scf accuracy    <       0.00002513 Ry

     iteration # 16     ecut=    40.42 Ry     beta=0.20
     Davidson diagonalization with overlap
     ethr =  3.82E-09,  avg # of iterations =  3.0

     negative rho (up, down):  5.452E-03 0.000E+00

     total cpu time spent up to now is     6774.4 secs

     total energy              =  -13113.32741171 Ry
     Harris-Foulkes estimate   =  -13113.32741490 Ry
     estimated scf accuracy    <       0.00001012 Ry

     iteration # 17     ecut=    40.42 Ry     beta=0.20
     Davidson diagonalization with overlap
     ethr =  1.54E-09,  avg # of iterations =  3.2

     negative rho (up, down):  5.122E-03 0.000E+00

     total cpu time spent up to now is     6871.4 secs

     total energy              =  -13113.32741052 Ry
     Harris-Foulkes estimate   =  -13113.32741226 Ry
     estimated scf accuracy    <       0.00000572 Ry

     iteration # 18     ecut=    40.42 Ry     beta=0.20
     Davidson diagonalization with overlap
     ethr =  8.70E-10,  avg # of iterations =  3.0

     negative rho (up, down):  5.024E-03 0.000E+00

     total cpu time spent up to now is     6968.0 secs

     total energy              =  -13113.32741051 Ry
     Harris-Foulkes estimate   =  -13113.32741086 Ry
     estimated scf accuracy    <       0.00000271 Ry

     iteration # 19     ecut=    40.42 Ry     beta=0.20
     Davidson diagonalization with overlap
     ethr =  4.12E-10,  avg # of iterations =  2.0

     negative rho (up, down):  4.882E-03 0.000E+00

     total cpu time spent up to now is     7065.2 secs

     total energy              =  -13113.32741023 Ry
     Harris-Foulkes estimate   =  -13113.32741057 Ry
     estimated scf accuracy    <       0.00000177 Ry

     iteration # 20     ecut=    40.42 Ry     beta=0.20
     Davidson diagonalization with overlap
     ethr =  2.68E-10,  avg # of iterations =  3.0

     negative rho (up, down):  4.793E-03 0.000E+00

     total cpu time spent up to now is     7152.6 secs

     End of self-consistent calculation

          k = 0.0000 0.0000 0.0000 ( 79441 PWs)   bands (ev):

  -113.7272-113.7117-113.6998-113.6933-113.6909-113.6900-113.6880-113.6870
  -113.6865-113.6855-113.6843-113.6836-113.6832-113.6824-113.6816-113.6811
  -113.6806-113.6802-113.6796-113.6794-113.6789-113.6787-113.6768-113.6763
  -113.6760-113.6755-113.6734-113.6725-113.6720-113.6716-113.6706-113.6694
   -71.1753 -71.1706 -71.1612 -71.1547 -71.1537 -71.1529 -71.1503 -71.1489
   -71.1459 -71.1440 -71.1426 -71.1406 -71.1404 -71.1391 -71.1376 -71.1365
   -71.1360 -71.1353 -71.1299 -71.1259 -71.1207 -71.1200 -71.1176 -71.1165
   -71.1157 -71.1137 -71.1130 -71.1127 -71.1119 -71.1109 -71.1100 -71.1093
   -71.1092 -71.1086 -71.1080 -71.1076 -71.1040 -71.1034 -71.1033 -71.1018
   -71.1009 -71.1001 -71.0987 -71.0980 -71.0969 -71.0903 -71.0896 -71.0880
   -71.0866 -71.0861 -71.0849 -71.0839 -71.0837 -71.0823 -71.0774 -71.0769
   -71.0759 -71.0748 -71.0740 -71.0735 -71.0729 -71.0722 -71.0714 -71.0651
   -71.0649 -71.0572 -71.0479 -71.0430 -71.0386 -71.0379 -71.0376 -71.0352
   -71.0292 -71.0274 -71.0236 -71.0225 -71.0218 -71.0205 -71.0203 -71.0192
   -71.0157 -71.0101 -71.0069 -71.0040 -71.0031 -71.0028 -71.0015 -71.0010
   -70.9996 -70.9986 -70.9972 -70.9967 -70.9947 -70.9943 -70.9934 -70.9911
   -27.0963 -25.5110 -22.7780 -22.5914 -17.6665 -15.0325 -13.1013 -11.6134
   -10.3661 -10.0486  -9.7558  -9.4864  -9.3938  -9.0940  -8.9813  -8.5018
    -7.7626  -7.6204  -7.5886  -7.5846  -7.5832  -7.5792  -7.5781  -7.4000
    -7.1869  -6.7222  -6.6935  -5.9066  -5.7133  -5.7120  -5.7108  -5.6897
    -5.6865  -5.6841  -5.5529  -5.5520  -5.5510  -5.5502  -5.5485  -5.5471
    -5.4879  -5.4713  -5.4647  -5.4636  -5.4610  -5.4590  -5.2453  -5.2315
    -5.2306  -5.1108  -4.9605  -4.9503  -4.9489  -4.9486  -4.9472  -4.9432
    -4.9418  -4.9090  -4.8984  -4.8971  -4.8946  -4.8934  -4.8876  -4.7982
    -4.6996  -4.6963  -4.6951  -4.6902  -4.6856  -4.6567  -4.3927  -4.3914
    -4.3876  -4.3591  -4.3576  -4.3568  -4.3551  -4.3541  -4.3531  -4.2869
    -4.2829  -4.2804  -4.2787  -4.2749  -4.2693  -4.2657  -4.2509  -4.2434
    -4.2411  -4.2393  -4.2328  -4.2278  -4.1626  -4.1431  -4.1429  -4.1423
    -4.1419  -4.1413  -4.1396  -4.1387  -4.1364  -4.1358  -4.1290  -4.1263
    -4.1253  -4.1188  -4.0510  -4.0489  -4.0488  -4.0023  -3.9783  -3.9777
    -3.9740  -3.9733  -3.9668  -3.9547  -3.9517  -3.9501  -3.9486  -3.9469
    -3.9434  -3.8907  -3.8215  -3.8207  -3.8191  -3.7227  -3.7201  -3.7185
    -3.7163  -3.7155  -3.7139  -3.5075  -3.5069  -3.5057  -3.5025  -3.5018
    -3.5012  -3.4959  -3.4924  -3.4898  -3.4877  -3.4809  -3.4705  -3.4660
    -3.4624  -3.4570  -3.3464  -3.3309  -3.3300  -3.3149  -3.3136  -3.3128
    -3.3112  -3.3104  -3.3094  -3.2956  -3.2942  -3.2932  -3.2918  -3.2907
    -3.2879  -3.2227  -3.2179  -3.2167  -3.2165  -3.2142  -3.2124  -3.2108
    -3.2069  -3.1608  -3.0557  -3.0555  -3.0548  -2.9744  -2.9716  -2.9690
    -2.9688  -2.9679  -2.9673  -2.9655  -2.9637  -2.8833  -2.8821  -2.8809
    -2.8799  -2.8793  -2.8671  -2.7770  -2.7762  -2.7746  -2.7228  -2.7222
    -2.7211  -2.0412  -2.0258  -2.0212  -2.0176  -2.0021  -1.8640  -1.2856
    -1.1017  -1.0996  -1.0979  -1.0974  -1.0908  -1.0800  -0.9478  -0.9463
    -0.9423   0.1664   0.1678

          k = 0.0000-0.0565 0.0000 ( 79262 PWs)   bands (ev):

  -113.7272-113.7117-113.6998-113.6934-113.6907-113.6897-113.6892-113.6869
  -113.6857-113.6851-113.6844-113.6840-113.6831-113.6823-113.6819-113.6810
  -113.6805-113.6804-113.6797-113.6794-113.6790-113.6783-113.6769-113.6763
  -113.6760-113.6752-113.6734-113.6725-113.6722-113.6717-113.6705-113.6694
   -71.1743 -71.1683 -71.1561 -71.1519 -71.1514 -71.1506 -71.1491 -71.1466
   -71.1456 -71.1452 -71.1439 -71.1431 -71.1428 -71.1422 -71.1374 -71.1365
   -71.1351 -71.1347 -71.1336 -71.1320 -71.1287 -71.1282 -71.1260 -71.1255
   -71.1245 -71.1228 -71.1156 -71.1141 -71.1122 -71.1093 -71.1075 -71.1051
   -71.1036 -71.1033 -71.1029 -71.0998 -71.0987 -71.0982 -71.0978 -71.0970
   -71.0960 -71.0946 -71.0934 -71.0919 -71.0911 -71.0905 -71.0892 -71.0874
   -71.0859 -71.0854 -71.0848 -71.0846 -71.0836 -71.0822 -71.0814 -71.0800
   -71.0792 -71.0786 -71.0779 -71.0767 -71.0752 -71.0727 -71.0702 -71.0684
   -71.0670 -71.0568 -71.0479 -71.0440 -71.0394 -71.0381 -71.0352 -71.0324
   -71.0289 -71.0284 -71.0272 -71.0237 -71.0215 -71.0210 -71.0198 -71.0173
   -71.0141 -71.0105 -71.0075 -71.0047 -71.0032 -71.0026 -71.0018 -71.0005
   -70.9991 -70.9984 -70.9972 -70.9969 -70.9947 -70.9944 -70.9934 -70.9911
   -27.0963 -25.5110 -22.7780 -22.5914 -17.6665 -15.0325 -13.1012 -11.6133
   -10.3663 -10.0481  -9.7558  -9.4830  -9.0963  -8.9949  -8.9084  -8.8952
    -8.5018  -8.0063  -7.9891  -7.7303  -7.4344  -7.2007  -6.6978  -6.5411
    -6.5403  -6.5392  -6.5337  -6.3082  -6.3059  -6.2199  -6.2164  -5.9053
    -5.6824  -5.6812  -5.6791  -5.6777  -5.6087  -5.6007  -5.4397  -5.4321
    -5.3740  -5.3712  -5.3675  -5.3663  -5.2286  -5.2086  -5.1812  -5.1166
    -5.1137  -5.1096  -5.1087  -5.1082  -5.1057  -5.1041  -5.0955  -5.0804
    -5.0523  -5.0487  -5.0206  -4.9463  -4.9175  -4.9157  -4.8819  -4.8656
    -4.8653  -4.8488  -4.7640  -4.5247  -4.5165  -4.4686  -4.4537  -4.3320
    -4.3277  -4.3241  -4.3230  -4.3218  -4.3208  -4.3203  -4.3180  -4.3153
    -4.3127  -4.3106  -4.3050  -4.2981  -4.2943  -4.2797  -4.2755  -4.2674
    -4.2648  -4.2605  -4.2534  -4.2333  -4.2261  -4.1986  -4.1944  -4.1581
    -4.1554  -4.1037  -4.0887  -4.0849  -4.0798  -4.0460  -4.0202  -4.0165
    -3.9869  -3.9677  -3.9655  -3.9610  -3.9598  -3.9583  -3.9576  -3.9547
    -3.9544  -3.9500  -3.9136  -3.9018  -3.8967  -3.7837  -3.7727  -3.7630
    -3.7602  -3.7592  -3.7576  -3.7349  -3.7284  -3.7215  -3.7091  -3.6960
    -3.6945  -3.6938  -3.6867  -3.6842  -3.6784  -3.5783  -3.5778  -3.5444
    -3.5441  -3.5430  -3.5405  -3.5201  -3.5072  -3.4407  -3.4395  -3.3821
    -3.3748  -3.3683  -3.3669  -3.3616  -3.3604  -3.3467  -3.3219  -3.3190
    -3.3061  -3.2675  -3.2613  -3.1832  -3.1810  -3.1797  -3.1778  -3.1505
    -3.1493  -3.1463  -3.1453  -3.1077  -3.1045  -3.1037  -3.1013  -3.1010
    -3.0993  -3.0853  -3.0796  -3.0385  -3.0368  -3.0120  -3.0084  -2.9979
    -2.9964  -2.9941  -2.9904  -2.9673  -2.9640  -2.9535  -2.9527  -2.9305
    -2.9244  -2.9146  -2.9128  -2.8751  -2.8707  -2.8695  -2.8693  -2.8328
    -2.7697  -2.7319  -2.7292  -2.7261  -2.7243  -2.2615  -2.1932  -1.1136
    -1.1111  -1.1065  -1.1045  -0.9758  -0.9681  -0.9411  -0.8919  -0.4483
    -0.4396  -0.4135  -0.3370

          k = 0.0489-0.0282 0.0000 ( 79262 PWs)   bands (ev):

  -113.7272-113.7117-113.6998-113.6933-113.6909-113.6897-113.6889-113.6872
  -113.6861-113.6852-113.6841-113.6834-113.6830-113.6824-113.6818-113.6812
  -113.6807-113.6803-113.6799-113.6792-113.6788-113.6786-113.6767-113.6763
  -113.6760-113.6755-113.6735-113.6726-113.6721-113.6716-113.6705-113.6694
   -71.1731 -71.1690 -71.1573 -71.1548 -71.1525 -71.1497 -71.1491 -71.1462
   -71.1451 -71.1449 -71.1433 -71.1431 -71.1424 -71.1378 -71.1376 -71.1361
   -71.1359 -71.1354 -71.1325 -71.1319 -71.1282 -71.1279 -71.1267 -71.1260
   -71.1254 -71.1217 -71.1183 -71.1143 -71.1112 -71.1102 -71.1081 -71.1049
   -71.1043 -71.1036 -71.1024 -71.1010 -71.0988 -71.0984 -71.0965 -71.0960
   -71.0956 -71.0950 -71.0939 -71.0920 -71.0902 -71.0901 -71.0894 -71.0867
   -71.0860 -71.0853 -71.0848 -71.0845 -71.0837 -71.0820 -71.0812 -71.0808
   -71.0791 -71.0785 -71.0778 -71.0771 -71.0745 -71.0732 -71.0705 -71.0683
   -71.0672 -71.0572 -71.0470 -71.0431 -71.0409 -71.0390 -71.0352 -71.0316
   -71.0299 -71.0276 -71.0254 -71.0232 -71.0224 -71.0218 -71.0194 -71.0189
   -71.0136 -71.0092 -71.0077 -71.0056 -71.0037 -71.0021 -71.0012 -71.0006
   -70.9993 -70.9980 -70.9978 -70.9967 -70.9948 -70.9942 -70.9934 -70.9911
   -27.0963 -25.5110 -22.7780 -22.5914 -17.6665 -15.0325 -13.1013 -11.6132
   -10.3661 -10.0481  -9.7558  -9.4832  -9.0962  -8.9931  -8.9121  -8.8943
    -8.5014  -7.9981  -7.9931  -7.7297  -7.4394  -7.2046  -6.6966  -6.5418
    -6.5409  -6.5382  -6.5329  -6.3086  -6.3002  -6.2178  -6.2159  -5.9047
    -5.6826  -5.6819  -5.6789  -5.6774  -5.6176  -5.6067  -5.4326  -5.4321
    -5.3817  -5.3708  -5.3700  -5.3680  -5.2091  -5.2088  -5.1787  -5.1192
    -5.1128  -5.1115  -5.1083  -5.1076  -5.1057  -5.1051  -5.0852  -5.0811
    -5.0606  -5.0492  -5.0291  -4.9460  -4.9209  -4.9144  -4.8771  -4.8655
    -4.8647  -4.8524  -4.7655  -4.5242  -4.5165  -4.4616  -4.4562  -4.3283
    -4.3279  -4.3251  -4.3229  -4.3223  -4.3191  -4.3178  -4.3176  -4.3164
    -4.3119  -4.3107  -4.3050  -4.2955  -4.2947  -4.2846  -4.2727  -4.2691
    -4.2646  -4.2624  -4.2584  -4.2275  -4.2261  -4.1972  -4.1948  -4.1569
    -4.1549  -4.1024  -4.0869  -4.0835  -4.0804  -4.0426  -4.0227  -4.0199
    -3.9927  -3.9672  -3.9639  -3.9614  -3.9603  -3.9587  -3.9576  -3.9555
    -3.9545  -3.9525  -3.9149  -3.9006  -3.8978  -3.7799  -3.7749  -3.7616
    -3.7609  -3.7585  -3.7578  -3.7374  -3.7272  -3.7215  -3.7092  -3.6971
    -3.6966  -3.6919  -3.6882  -3.6840  -3.6766  -3.5785  -3.5762  -3.5455
    -3.5447  -3.5414  -3.5362  -3.5146  -3.5106  -3.4480  -3.4393  -3.3803
    -3.3758  -3.3693  -3.3666  -3.3614  -3.3596  -3.3506  -3.3216  -3.3207
    -3.3007  -3.2666  -3.2617  -3.1844  -3.1821  -3.1793  -3.1780  -3.1496
    -3.1480  -3.1472  -3.1463  -3.1079  -3.1050  -3.1043  -3.1028  -3.1008
    -3.0966  -3.0843  -3.0802  -3.0379  -3.0363  -3.0111  -3.0095  -2.9985
    -2.9951  -2.9948  -2.9914  -2.9663  -2.9653  -2.9558  -2.9521  -2.9298
    -2.9250  -2.9151  -2.9122  -2.8739  -2.8713  -2.8695  -2.8678  -2.8384
    -2.7647  -2.7320  -2.7279  -2.7274  -2.7228  -2.2520  -2.2061  -1.1133
    -1.1081  -1.1070  -1.1046  -0.9782  -0.9616  -0.9447  -0.8926  -0.4701
    -0.4458  -0.4308  -0.2825

          k =-0.0489-0.0282 0.0000 ( 79262 PWs)   bands (ev):

  -113.7272-113.7117-113.6998-113.6932-113.6908-113.6901-113.6892-113.6866
  -113.6855-113.6852-113.6847-113.6838-113.6833-113.6822-113.6816-113.6810
  -113.6809-113.6802-113.6797-113.6796-113.6789-113.6782-113.6771-113.6763
  -113.6760-113.6752-113.6734-113.6723-113.6722-113.6717-113.6705-113.6694
   -71.1735 -71.1690 -71.1569 -71.1538 -71.1521 -71.1494 -71.1484 -71.1466
   -71.1457 -71.1452 -71.1435 -71.1429 -71.1425 -71.1398 -71.1373 -71.1365
   -71.1359 -71.1345 -71.1335 -71.1319 -71.1282 -71.1280 -71.1265 -71.1261
   -71.1247 -71.1228 -71.1176 -71.1143 -71.1111 -71.1087 -71.1084 -71.1056
   -71.1042 -71.1034 -71.1027 -71.1002 -71.0992 -71.0982 -71.0970 -71.0956
   -71.0951 -71.0944 -71.0932 -71.0925 -71.0909 -71.0897 -71.0892 -71.0873
   -71.0866 -71.0858 -71.0853 -71.0851 -71.0829 -71.0816 -71.0813 -71.0806
   -71.0793 -71.0788 -71.0784 -71.0758 -71.0753 -71.0729 -71.0702 -71.0692
   -71.0663 -71.0571 -71.0458 -71.0441 -71.0432 -71.0366 -71.0352 -71.0306
   -71.0293 -71.0284 -71.0269 -71.0245 -71.0237 -71.0204 -71.0194 -71.0158
   -71.0148 -71.0102 -71.0080 -71.0044 -71.0037 -71.0024 -71.0012 -71.0006
   -70.9996 -70.9981 -70.9978 -70.9968 -70.9946 -70.9944 -70.9934 -70.9911
   -27.0963 -25.5109 -22.7780 -22.5914 -17.6665 -15.0325 -13.1012 -11.6132
   -10.3663 -10.0481  -9.7558  -9.4830  -9.0963  -8.9943  -8.9098  -8.8952
    -8.5015  -8.0012  -7.9901  -7.7308  -7.4381  -7.2032  -6.6975  -6.5420
    -6.5410  -6.5391  -6.5315  -6.3099  -6.2997  -6.2186  -6.2158  -5.9060
    -5.6827  -5.6818  -5.6788  -5.6777  -5.6109  -5.6075  -5.4366  -5.4322
    -5.3758  -5.3715  -5.3710  -5.3678  -5.2140  -5.2082  -5.1781  -5.1181
    -5.1140  -5.1095  -5.1087  -5.1075  -5.1058  -5.1034  -5.0886  -5.0830
    -5.0606  -5.0489  -5.0275  -4.9459  -4.9205  -4.9155  -4.8766  -4.8653
    -4.8642  -4.8491  -4.7669  -4.5246  -4.5165  -4.4666  -4.4532  -4.3305
    -4.3270  -4.3240  -4.3234  -4.3223  -4.3207  -4.3204  -4.3188  -4.3154
    -4.3120  -4.3097  -4.3050  -4.2969  -4.2947  -4.2799  -4.2741  -4.2662
    -4.2644  -4.2624  -4.2579  -4.2320  -4.2251  -4.1978  -4.1944  -4.1570
    -4.1558  -4.1022  -4.0888  -4.0846  -4.0796  -4.0474  -4.0198  -4.0144
    -3.9903  -3.9674  -3.9656  -3.9619  -3.9605  -3.9579  -3.9573  -3.9559
    -3.9529  -3.9522  -3.9158  -3.9023  -3.8962  -3.7827  -3.7731  -3.7624
    -3.7603  -3.7591  -3.7573  -3.7358  -3.7274  -3.7214  -3.7099  -3.6954
    -3.6951  -3.6931  -3.6883  -3.6871  -3.6738  -3.5790  -3.5767  -3.5454
    -3.5446  -3.5416  -3.5378  -3.5165  -3.5089  -3.4428  -3.4407  -3.3813
    -3.3752  -3.3693  -3.3646  -3.3629  -3.3611  -3.3493  -3.3212  -3.3188
    -3.3052  -3.2666  -3.2621  -3.1832  -3.1811  -3.1802  -3.1780  -3.1507
    -3.1496  -3.1461  -3.1448  -3.1085  -3.1063  -3.1035  -3.1013  -3.0999
    -3.0972  -3.0854  -3.0802  -3.0391  -3.0367  -3.0120  -3.0090  -2.9969
    -2.9963  -2.9938  -2.9911  -2.9683  -2.9629  -2.9544  -2.9528  -2.9306
    -2.9242  -2.9146  -2.9127  -2.8742  -2.8716  -2.8692  -2.8690  -2.8350
    -2.7675  -2.7320  -2.7289  -2.7265  -2.7239  -2.2568  -2.1978  -1.1132
    -1.1087  -1.1069  -1.1044  -0.9814  -0.9583  -0.9493  -0.8932  -0.4644
    -0.4400  -0.4168  -0.3075

     the Fermi energy is    -1.1767 ev

!    total energy              =  -13113.32741026 Ry
     Harris-Foulkes estimate   =  -13113.32741036 Ry
     estimated scf accuracy    <       0.00000065 Ry

     The total energy is the sum of the following terms:

     one-electron contribution = -114087.03530987 Ry
     hartree contribution      =   57038.04093335 Ry
     xc contribution           =   -1292.04749257 Ry
     ewald contribution        =   45227.77530324 Ry
     smearing contrib. (-TS)   =      -0.06084442 Ry

     convergence has been achieved in  20 iterations

     Forces acting on atoms (Ry/au):


     negative rho (up, down):  4.793E-03 0.000E+00
     atom    1 type  1   force =    -0.00008871    0.00002160    0.00065533
     atom    2 type  1   force =    -0.00004856   -0.00005544   -0.00067559
     atom    3 type  1   force =     0.00003340    0.00019264    0.00005158
     atom    4 type  1   force =    -0.00092917   -0.00135315   -0.00227431
     atom    5 type  1   force =     0.00024368   -0.00009220    0.00002917
     atom    6 type  1   force =    -0.00145914    0.00040874   -0.00246544
     atom    7 type  1   force =    -0.00016806   -0.00000917    0.00097342
     atom    8 type  1   force =     0.00005504   -0.00007299   -0.00058239
     atom    9 type  1   force =    -0.00004649    0.00014299    0.00090870
     atom   10 type  1   force =     0.00003961    0.00006598   -0.00041429
     atom   11 type  1   force =     0.00003898    0.00021934    0.00047321
     atom   12 type  1   force =     0.00121203   -0.00221524   -0.00244538
     atom   13 type  1   force =     0.00002095   -0.00013284    0.00064577
     atom   14 type  1   force =     0.00220850   -0.00100188   -0.00125425
     atom   15 type  1   force =     0.00013094   -0.00011092   -0.00025404
     atom   16 type  1   force =    -0.00138400    0.00092096   -0.00207454
     atom   17 type  1   force =     0.00027107   -0.00020879    0.00025663
     atom   18 type  1   force =    -0.00014393   -0.00012475   -0.00069917
     atom   19 type  1   force =    -0.00013658    0.00038898   -0.00032179
     atom   20 type  1   force =    -0.00027753    0.00008276   -0.00053535
     atom   21 type  1   force =     0.00039400   -0.00016319    0.00095124
     atom   22 type  1   force =     0.00259467    0.00002915   -0.00270914
     atom   23 type  1   force =     0.00016691    0.00013144    0.00106450
     atom   24 type  1   force =     0.00111811    0.00165679   -0.00216181
     atom   25 type  1   force =    -0.00023990   -0.00018610    0.00007909
     atom   26 type  1   force =     0.00006576    0.00001887   -0.00047683
     atom   27 type  1   force =    -0.00001438   -0.00000770    0.00097502
     atom   28 type  1   force =     0.00007674    0.00022295   -0.00059010
     atom   29 type  1   force =    -0.00040196   -0.00011567   -0.00018470
     atom   30 type  1   force =     0.00006489   -0.00006032   -0.00052985
     atom   31 type  1   force =    -0.00022221   -0.00015704    0.00048235
     atom   32 type  1   force =     0.00010022    0.00008759   -0.00052842
     atom   33 type  2   force =    -0.05862533    0.01280286    0.02023556
     atom   34 type  2   force =    -0.01045784   -0.09696261    0.00836162
     atom   35 type  2   force =    -0.85745782   -0.03857194    0.64889506
     atom   36 type  2   force =     0.04283505   -0.04365614    0.39854257
     atom   37 type  3   force =     0.02004516    0.03224925   -0.02926654
     atom   38 type  3   force =     0.01311584    0.15687750   -0.03503847
     atom   39 type  3   force =     0.89300439    0.02629626   -0.66791019
     atom   40 type  3   force =    -0.04329443    0.06622432   -0.46522289
     atom   41 type  3   force =    -0.00271768   -0.14391432    0.08914116
     atom   42 type  4   force =    -0.02769564   -0.03363862    0.01867374
     atom   43 type  4   force =    -0.01731876    0.01407588    0.01484837
     atom   44 type  4   force =     0.00225197    0.00088419    0.00093128
     atom   45 type  4   force =    -0.00399442    0.00396325   -0.03330532
     atom   46 type  4   force =     0.03785787   -0.00503535    0.00124266
     atom   47 type  4   force =     0.00917676    0.04988205    0.04350277

     Total force =     1.693513     Total SCF correction =     0.006918
 !ASE

     Writing output data file calc.save
     Check: negative starting charge=   -0.009997
     NEW-OLD atomic charge density approx. for the potential
     Check: negative starting charge=   -0.010025

     negative rho (up, down):  5.331E-03 0.000E+00

     total cpu time spent up to now is     7228.9 secs

     per-process dynamical memory:   430.6 Mb

     Self-consistent Calculation

     iteration #  1     ecut=    40.42 Ry     beta=0.20
     Davidson diagonalization with overlap
     ethr =  2.68E-10,  avg # of iterations = 13.2

     negative rho (up, down):  6.077E-03 0.000E+00

     total cpu time spent up to now is     7520.0 secs

     total energy              =  -13113.55786815 Ry
     Harris-Foulkes estimate   =  -13113.56657218 Ry
     estimated scf accuracy    <       0.07838355 Ry

     iteration #  2     ecut=    40.42 Ry     beta=0.20
     Davidson diagonalization with overlap
     ethr =  1.19E-05,  avg # of iterations =  1.0

     negative rho (up, down):  2.035E-02 0.000E+00

     total cpu time spent up to now is     7617.0 secs

     total energy              =  -13113.53114652 Ry
     Harris-Foulkes estimate   =  -13113.55813037 Ry
     estimated scf accuracy    <       0.05756257 Ry

     iteration #  3     ecut=    40.42 Ry     beta=0.20
     Davidson diagonalization with overlap
     ethr =  8.75E-06,  avg # of iterations =  4.0

     negative rho (up, down):  1.991E-02 0.000E+00

     total cpu time spent up to now is     7716.8 secs

     total energy              =  -13113.53770965 Ry
     Harris-Foulkes estimate   =  -13113.53831862 Ry
     estimated scf accuracy    <       0.00745917 Ry

     iteration #  4     ecut=    40.42 Ry     beta=0.20
     Davidson diagonalization with overlap
     ethr =  1.13E-06,  avg # of iterations =  3.0

     negative rho (up, down):  2.257E-02 0.000E+00

     total cpu time spent up to now is     7825.8 secs

     total energy              =  -13113.53719425 Ry
     Harris-Foulkes estimate   =  -13113.53791189 Ry
     estimated scf accuracy    <       0.00523451 Ry

     iteration #  5     ecut=    40.42 Ry     beta=0.20
     Davidson diagonalization with overlap
     ethr =  7.96E-07,  avg # of iterations =  3.5

     negative rho (up, down):  2.327E-02 0.000E+00

     total cpu time spent up to now is     7930.8 secs

     total energy              =  -13113.53707430 Ry
     Harris-Foulkes estimate   =  -13113.53738090 Ry
     estimated scf accuracy    <       0.00340191 Ry

     iteration #  6     ecut=    40.42 Ry     beta=0.20
     Davidson diagonalization with overlap
     ethr =  5.17E-07,  avg # of iterations =  2.5

     negative rho (up, down):  2.474E-02 0.000E+00

     total cpu time spent up to now is     8026.9 secs

     total energy              =  -13113.53678903 Ry
     Harris-Foulkes estimate   =  -13113.53711824 Ry
     estimated scf accuracy    <       0.00255492 Ry

     iteration #  7     ecut=    40.42 Ry     beta=0.20
     Davidson diagonalization with overlap
     ethr =  3.88E-07,  avg # of iterations =  3.2

     negative rho (up, down):  2.291E-02 0.000E+00

     total cpu time spent up to now is     8130.3 secs

     total energy              =  -13113.53659162 Ry
     Harris-Foulkes estimate   =  -13113.53687860 Ry
     estimated scf accuracy    <       0.00199043 Ry

     iteration #  8     ecut=    40.42 Ry     beta=0.20
     Davidson diagonalization with overlap
     ethr =  3.02E-07,  avg # of iterations =  2.5

     negative rho (up, down):  2.255E-02 0.000E+00

     total cpu time spent up to now is     8229.3 secs

     total energy              =  -13113.53646887 Ry
     Harris-Foulkes estimate   =  -13113.53662841 Ry
     estimated scf accuracy    <       0.00164171 Ry

     iteration #  9     ecut=    40.42 Ry     beta=0.20
     Davidson diagonalization with overlap
     ethr =  2.50E-07,  avg # of iterations =  3.0

     negative rho (up, down):  1.686E-02 0.000E+00

     total cpu time spent up to now is     8332.9 secs

     total energy              =  -13113.53591667 Ry
     Harris-Foulkes estimate   =  -13113.53648450 Ry
     estimated scf accuracy    <       0.00145284 Ry

     iteration # 10     ecut=    40.42 Ry     beta=0.20
     Davidson diagonalization with overlap
     ethr =  2.21E-07,  avg # of iterations =  3.2

     negative rho (up, down):  1.377E-02 0.000E+00

     total cpu time spent up to now is     8430.2 secs

     total energy              =  -13113.53574211 Ry
     Harris-Foulkes estimate   =  -13113.53600869 Ry
[...]
    -3.2488  -3.2485  -3.2251  -3.2223  -3.2210  -3.1923  -3.1911  -3.1612
    -3.1601  -3.1415  -3.1411  -3.1377  -3.1367  -3.0739  -3.0533  -3.0530
    -3.0303  -2.7358  -2.4697  -2.4504  -2.3243  -2.3230  -2.1529  -1.9020
    -1.8842  -1.6204  -1.3639  -1.3634  -1.3127  -1.3103  -1.3039  -0.2425
    -0.2278  -0.0622  -0.0602

          k = 0.0489-0.0282 0.0000 ( 79262 PWs)   bands (ev):

  -113.9452-113.9432-113.9414-113.9400-113.9392-113.9377-113.9367-113.9364
  -113.9354-113.9352-113.9347-113.9342-113.9339-113.9337-113.9331-113.9328
  -113.9322-113.9320-113.9315-113.9312-113.9310-113.9304-113.9304-113.9300
  -113.9298-113.9295-113.9294-113.9288-113.9286-113.9283-113.9276-113.9265
   -71.4059 -71.4051 -71.4047 -71.4036 -71.4002 -71.3992 -71.3980 -71.3974
   -71.3970 -71.3967 -71.3964 -71.3959 -71.3918 -71.3912 -71.3892 -71.3889
   -71.3854 -71.3853 -71.3849 -71.3846 -71.3802 -71.3800 -71.3798 -71.3795
   -71.3753 -71.3746 -71.3648 -71.3643 -71.3590 -71.3584 -71.3577 -71.3570
   -71.3568 -71.3558 -71.3543 -71.3536 -71.3491 -71.3487 -71.3483 -71.3480
   -71.3471 -71.3465 -71.3454 -71.3451 -71.3447 -71.3439 -71.3408 -71.3398
   -71.3383 -71.3381 -71.3381 -71.3378 -71.3366 -71.3361 -71.3353 -71.3344
   -71.3325 -71.3319 -71.3314 -71.3301 -71.3284 -71.3278 -71.3221 -71.3211
   -71.3000 -71.2987 -71.2926 -71.2925 -71.2847 -71.2836 -71.2821 -71.2814
   -71.2793 -71.2788 -71.2744 -71.2739 -71.2737 -71.2710 -71.2671 -71.2667
   -71.2596 -71.2591 -71.2568 -71.2559 -71.2554 -71.2539 -71.2534 -71.2523
   -71.2516 -71.2510 -71.2507 -71.2503 -71.2492 -71.2486 -71.2479 -71.2459
   -24.7854 -24.5373 -22.4828 -22.2182 -17.5771 -15.2886 -13.5230 -12.3034
   -10.6208  -9.3460  -9.2139  -9.1744  -9.1673  -8.9596  -8.6443  -8.2893
    -8.2544  -8.2441  -7.7893  -7.3598  -7.0437  -6.8208  -6.8020  -6.8013
    -6.8005  -6.7554  -6.5703  -6.5547  -6.4762  -6.4740  -6.4072  -5.9433
    -5.9347  -5.9346  -5.9338  -5.9336  -5.8638  -5.8610  -5.6858  -5.6850
    -5.6230  -5.6223  -5.6222  -5.6218  -5.4598  -5.4596  -5.3634  -5.3631
    -5.3627  -5.3625  -5.3607  -5.3600  -5.3591  -5.3588  -5.3329  -5.3322
    -5.3020  -5.3019  -5.1679  -5.1675  -5.1175  -5.1158  -5.1157  -5.1150
    -4.9347  -4.7733  -4.7725  -4.7517  -4.7153  -4.7108  -4.5801  -4.5797
    -4.5792  -4.5784  -4.5780  -4.5774  -4.5773  -4.5767  -4.5752  -4.5744
    -4.5650  -4.5641  -4.5535  -4.5533  -4.5296  -4.5282  -4.5278  -4.5251
    -4.5178  -4.5163  -4.4801  -4.4796  -4.4538  -4.4533  -4.4115  -4.4109
    -4.3450  -4.3437  -4.3424  -4.3414  -4.2724  -4.2722  -4.2163  -4.2159
    -4.2149  -4.2137  -4.2129  -4.2126  -4.2088  -4.2084  -4.2083  -4.2062
    -4.1519  -4.1510  -4.0253  -4.0238  -4.0125  -4.0121  -4.0117  -4.0115
    -3.9951  -3.9913  -3.9755  -3.9748  -3.9498  -3.9495  -3.9490  -3.9488
    -3.9426  -3.9411  -3.9037  -3.8306  -3.8300  -3.8006  -3.8003  -3.7991
    -3.7987  -3.7765  -3.7757  -3.7123  -3.7071  -3.6432  -3.6308  -3.6296
    -3.6254  -3.6233  -3.6222  -3.6163  -3.6079  -3.5796  -3.5794  -3.5377
    -3.5242  -3.5169  -3.4361  -3.4358  -3.4350  -3.4343  -3.4061  -3.4055
    -3.4052  -3.4043  -3.3836  -3.3612  -3.3600  -3.3600  -3.3595  -3.3588
    -3.3572  -3.3417  -3.3410  -3.2953  -3.2946  -3.2678  -3.2676  -3.2524
    -3.2518  -3.2515  -3.2505  -3.2229  -3.2216  -3.2137  -3.2131  -3.1813
    -3.1807  -3.1709  -3.1700  -3.1279  -3.1269  -3.1268  -3.1244  -3.0922
    -3.0680  -2.9852  -2.9848  -2.9847  -2.9842  -2.5181  -2.5063  -1.3706
    -1.3698  -1.3687  -1.3668  -1.2347  -1.2298  -1.2219  -1.2056  -0.7225
    -0.7178  -0.6900  -0.6302

          k =-0.0489-0.0282 0.0000 ( 79262 PWs)   bands (ev):

  -113.9453-113.9429-113.9414-113.9408-113.9388-113.9374-113.9368-113.9362
  -113.9357-113.9354-113.9345-113.9341-113.9340-113.9335-113.9333-113.9330
  -113.9321-113.9320-113.9315-113.9314-113.9308-113.9305-113.9302-113.9299
  -113.9297-113.9296-113.9294-113.9289-113.9288-113.9282-113.9276-113.9265
   -71.4062 -71.4059 -71.4038 -71.4034 -71.4003 -71.3986 -71.3979 -71.3976
   -71.3967 -71.3967 -71.3965 -71.3961 -71.3919 -71.3909 -71.3894 -71.3890
   -71.3857 -71.3853 -71.3850 -71.3846 -71.3803 -71.3801 -71.3796 -71.3794
   -71.3749 -71.3748 -71.3646 -71.3643 -71.3591 -71.3586 -71.3580 -71.3577
   -71.3559 -71.3556 -71.3542 -71.3536 -71.3489 -71.3483 -71.3483 -71.3479
   -71.3475 -71.3463 -71.3456 -71.3455 -71.3442 -71.3439 -71.3410 -71.3393
   -71.3386 -71.3384 -71.3381 -71.3377 -71.3364 -71.3360 -71.3356 -71.3344
   -71.3326 -71.3317 -71.3316 -71.3299 -71.3284 -71.3279 -71.3222 -71.3209
   -71.3003 -71.2982 -71.2932 -71.2923 -71.2844 -71.2830 -71.2821 -71.2819
   -71.2799 -71.2783 -71.2747 -71.2745 -71.2724 -71.2714 -71.2673 -71.2664
   -71.2599 -71.2589 -71.2567 -71.2566 -71.2546 -71.2541 -71.2531 -71.2523
   -71.2519 -71.2511 -71.2510 -71.2503 -71.2489 -71.2486 -71.2479 -71.2460
   -24.7854 -24.5373 -22.4828 -22.2182 -17.5771 -15.2886 -13.5230 -12.3034
   -10.6209  -9.3454  -9.2150  -9.1756  -9.1660  -8.9592  -8.6445  -8.2878
    -8.2552  -8.2450  -7.7893  -7.3591  -7.0437  -6.8211  -6.8019  -6.8012
    -6.8008  -6.7548  -6.5682  -6.5560  -6.4757  -6.4753  -6.4080  -5.9447
    -5.9347  -5.9340  -5.9340  -5.9323  -5.8633  -5.8613  -5.6857  -5.6852
    -5.6228  -5.6225  -5.6218  -5.6218  -5.4598  -5.4595  -5.3634  -5.3631
    -5.3627  -5.3623  -5.3605  -5.3603  -5.3591  -5.3587  -5.3334  -5.3316
    -5.3022  -5.3019  -5.1678  -5.1674  -5.1186  -5.1160  -5.1154  -5.1147
    -4.9334  -4.7733  -4.7726  -4.7518  -4.7162  -4.7113  -4.5805  -4.5801
    -4.5787  -4.5781  -4.5781  -4.5776  -4.5774  -4.5770  -4.5746  -4.5738
    -4.5647  -4.5642  -4.5537  -4.5533  -4.5296  -4.5288  -4.5272  -4.5254
    -4.5179  -4.5162  -4.4799  -4.4795  -4.4536  -4.4534  -4.4116  -4.4105
    -4.3440  -4.3434  -4.3430  -4.3417  -4.2726  -4.2718  -4.2165  -4.2157
    -4.2155  -4.2140  -4.2130  -4.2124  -4.2091  -4.2088  -4.2078  -4.2066
    -4.1521  -4.1507  -4.0254  -4.0236  -4.0125  -4.0121  -4.0117  -4.0114
    -3.9934  -3.9912  -3.9763  -3.9749  -3.9507  -3.9492  -3.9487  -3.9481
    -3.9432  -3.9411  -3.9037  -3.8307  -3.8302  -3.8018  -3.8003  -3.7994
    -3.7988  -3.7804  -3.7737  -3.7097  -3.7065  -3.6373  -3.6310  -3.6294
    -3.6251  -3.6233  -3.6227  -3.6177  -3.6076  -3.5796  -3.5795  -3.5427
    -3.5241  -3.5148  -3.4357  -3.4356  -3.4353  -3.4348  -3.4064  -3.4059
    -3.4048  -3.4042  -3.3836  -3.3613  -3.3598  -3.3595  -3.3589  -3.3587
    -3.3581  -3.3421  -3.3407  -3.2954  -3.2944  -3.2683  -3.2670  -3.2524
    -3.2521  -3.2514  -3.2502  -3.2231  -3.2214  -3.2141  -3.2129  -3.1817
    -3.1803  -3.1710  -3.1698  -3.1281  -3.1275  -3.1257  -3.1252  -3.0893
    -3.0735  -2.9852  -2.9850  -2.9849  -2.9839  -2.5205  -2.5014  -1.3708
    -1.3699  -1.3679  -1.3674  -1.2351  -1.2278  -1.2247  -1.2057  -0.7219
    -0.7141  -0.6775  -0.6496

          k =-0.0245 0.0424 0.0000 ( 79268 PWs)   bands (ev):

  -113.9452-113.9432-113.9416-113.9400-113.9389-113.9377-113.9368-113.9364
  -113.9357-113.9351-113.9346-113.9343-113.9339-113.9334-113.9331-113.9327
  -113.9323-113.9319-113.9317-113.9313-113.9309-113.9305-113.9303-113.9300
  -113.9298-113.9296-113.9294-113.9289-113.9285-113.9284-113.9276-113.9265
   -71.4076 -71.4041 -71.4038 -71.4025 -71.4020 -71.3996 -71.3979 -71.3963
   -71.3960 -71.3958 -71.3948 -71.3947 -71.3926 -71.3919 -71.3911 -71.3906
   -71.3897 -71.3859 -71.3853 -71.3847 -71.3810 -71.3800 -71.3786 -71.3720
   -71.3716 -71.3706 -71.3675 -71.3673 -71.3657 -71.3652 -71.3582 -71.3546
   -71.3545 -71.3540 -71.3526 -71.3511 -71.3504 -71.3484 -71.3480 -71.3476
   -71.3471 -71.3464 -71.3459 -71.3432 -71.3424 -71.3422 -71.3416 -71.3415
   -71.3409 -71.3400 -71.3381 -71.3378 -71.3366 -71.3355 -71.3349 -71.3335
   -71.3334 -71.3325 -71.3321 -71.3309 -71.3279 -71.3242 -71.3239 -71.3211
   -71.3004 -71.2976 -71.2954 -71.2884 -71.2876 -71.2837 -71.2825 -71.2806
   -71.2783 -71.2771 -71.2764 -71.2757 -71.2716 -71.2706 -71.2689 -71.2654
   -71.2605 -71.2582 -71.2570 -71.2563 -71.2549 -71.2542 -71.2533 -71.2524
   -71.2520 -71.2509 -71.2505 -71.2501 -71.2495 -71.2486 -71.2479 -71.2459
   -24.7854 -24.5373 -22.4828 -22.2182 -17.5771 -15.2886 -13.5230 -12.3034
   -10.6208  -9.3483  -9.2948  -9.2024  -8.9664  -8.8195  -8.8166  -8.6424
    -8.2787  -7.7896  -7.5393  -7.5387  -7.3594  -7.0434  -6.8484  -6.7776
    -6.6742  -6.6728  -6.6542  -6.4102  -6.2821  -6.2770  -6.2420  -6.2417
    -6.2220  -6.2214  -5.9424  -5.7699  -5.7516  -5.6957  -5.6950  -5.6503
    -5.6498  -5.5753  -5.5750  -5.4903  -5.4900  -5.4821  -5.4815  -5.4555
    -5.4541  -5.4002  -5.3933  -5.3772  -5.3767  -5.2800  -5.2798  -5.2641
    -5.2625  -5.2383  -5.2372  -5.1735  -5.1493  -5.1239  -5.0469  -4.9540
    -4.9370  -4.9217  -4.8457  -4.7952  -4.7925  -4.7512  -4.6422  -4.6418
    -4.6189  -4.5969  -4.5959  -4.5950  -4.5941  -4.5903  -4.5800  -4.5793
    -4.5492  -4.5472  -4.5459  -4.5365  -4.5356  -4.5275  -4.5265  -4.5148
    -4.4712  -4.4702  -4.4526  -4.4363  -4.4255  -4.3898  -4.3543  -4.3535
    -4.3467  -4.3410  -4.3154  -4.3141  -4.2469  -4.2435  -4.2428  -4.2196
    -4.1886  -4.1877  -4.1853  -4.1841  -4.1839  -4.1279  -4.1273  -4.0891
    -4.0888  -4.0856  -4.0841  -4.0826  -4.0819  -4.0575  -4.0571  -4.0485
    -4.0230  -4.0220  -4.0198  -4.0182  -3.9891  -3.9887  -3.9667  -3.9653
    -3.9482  -3.9237  -3.9222  -3.9005  -3.8893  -3.8885  -3.8580  -3.7806
    -3.7765  -3.7415  -3.6845  -3.6796  -3.6697  -3.6678  -3.6643  -3.6138
    -3.6074  -3.5896  -3.5886  -3.5847  -3.5769  -3.5733  -3.5669  -3.5444
    -3.5272  -3.5213  -3.4997  -3.4985  -3.4800  -3.4738  -3.4090  -3.4058
    -3.4041  -3.3925  -3.3917  -3.3833  -3.3602  -3.3600  -3.3598  -3.3595
    -3.3589  -3.3423  -3.3410  -3.3055  -3.3049  -3.3019  -3.3010  -3.2786
    -3.2723  -3.2616  -3.2582  -3.2566  -3.2190  -3.2176  -3.2091  -3.2017
    -3.2007  -3.1864  -3.1546  -3.1540  -3.1345  -3.1172  -3.1169  -3.0683
    -3.0671  -2.9559  -2.8629  -2.8483  -2.4246  -2.4237  -2.3738  -2.3725
    -2.0020  -1.9893  -1.2635  -1.0752  -1.0666  -0.8629  -0.3843  -0.1947
    -0.1865  -0.1462  -0.1226

          k = 0.0489-0.0000 0.0000 ( 79268 PWs)   bands (ev):

  -113.9452-113.9430-113.9417-113.9402-113.9390-113.9375-113.9368-113.9365
  -113.9354-113.9351-113.9347-113.9343-113.9340-113.9336-113.9332-113.9327
  -113.9323-113.9320-113.9316-113.9312-113.9309-113.9305-113.9302-113.9300
  -113.9297-113.9296-113.9294-113.9289-113.9287-113.9282-113.9276-113.9265
   -71.4077 -71.4043 -71.4039 -71.4022 -71.4018 -71.3997 -71.3974 -71.3967
   -71.3960 -71.3958 -71.3947 -71.3944 -71.3930 -71.3922 -71.3910 -71.3904
   -71.3900 -71.3860 -71.3852 -71.3847 -71.3811 -71.3800 -71.3786 -71.3720
   -71.3716 -71.3706 -71.3674 -71.3673 -71.3656 -71.3654 -71.3582 -71.3545
   -71.3544 -71.3536 -71.3529 -71.3509 -71.3504 -71.3490 -71.3479 -71.3477
   -71.3471 -71.3465 -71.3458 -71.3430 -71.3424 -71.3419 -71.3416 -71.3413
   -71.3412 -71.3398 -71.3382 -71.3381 -71.3368 -71.3354 -71.3351 -71.3337
   -71.3331 -71.3325 -71.3323 -71.3309 -71.3279 -71.3241 -71.3239 -71.3210
   -71.3005 -71.2970 -71.2959 -71.2884 -71.2879 -71.2832 -71.2823 -71.2808
   -71.2781 -71.2775 -71.2768 -71.2755 -71.2718 -71.2700 -71.2691 -71.2654
   -71.2606 -71.2581 -71.2574 -71.2563 -71.2548 -71.2542 -71.2527 -71.2524
   -71.2519 -71.2515 -71.2509 -71.2496 -71.2494 -71.2486 -71.2479 -71.2460
   -24.7854 -24.5373 -22.4828 -22.2182 -17.5771 -15.2886 -13.5230 -12.3034
   -10.6208  -9.3480  -9.2953  -9.2023  -8.9663  -8.8201  -8.8160  -8.6424
    -8.2788  -7.7898  -7.5393  -7.5386  -7.3592  -7.0436  -6.8482  -6.7777
    -6.6741  -6.6729  -6.6543  -6.4097  -6.2817  -6.2776  -6.2421  -6.2417
    -6.2220  -6.2215  -5.9425  -5.7701  -5.7516  -5.6954  -5.6952  -5.6502
    -5.6498  -5.5752  -5.5750  -5.4903  -5.4900  -5.4824  -5.4813  -5.4552
    -5.4546  -5.4002  -5.3933  -5.3770  -5.3768  -5.2800  -5.2798  -5.2636
    -5.2633  -5.2379  -5.2374  -5.1735  -5.1493  -5.1239  -5.0467  -4.9558
    -4.9371  -4.9196  -4.8457  -4.7958  -4.7922  -4.7512  -4.6422  -4.6418
    -4.6188  -4.5970  -4.5958  -4.5950  -4.5937  -4.5906  -4.5806  -4.5790
    -4.5492  -4.5474  -4.5458  -4.5364  -4.5355  -4.5272  -4.5268  -4.5149
    -4.4711  -4.4703  -4.4526  -4.4363  -4.4255  -4.3898  -4.3542  -4.3538
    -4.3467  -4.3409  -4.3156  -4.3140  -4.2469  -4.2435  -4.2428  -4.2195
    -4.1882  -4.1878  -4.1853  -4.1846  -4.1839  -4.1280  -4.1271  -4.0890
    -4.0889  -4.0847  -4.0844  -4.0825  -4.0822  -4.0574  -4.0572  -4.0485
    -4.0231  -4.0219  -4.0190  -4.0187  -3.9893  -3.9886  -3.9669  -3.9654
    -3.9475  -3.9240  -3.9218  -3.9015  -3.8891  -3.8877  -3.8584  -3.7799
    -3.7774  -3.7418  -3.6847  -3.6789  -3.6696  -3.6673  -3.6644  -3.6137
    -3.6076  -3.5900  -3.5887  -3.5849  -3.5769  -3.5725  -3.5676  -3.5432
    -3.5272  -3.5226  -3.4993  -3.4988  -3.4795  -3.4741  -3.4092  -3.4054
    -3.4048  -3.3922  -3.3918  -3.3833  -3.3602  -3.3599  -3.3596  -3.3595
    -3.3591  -3.3419  -3.3413  -3.3052  -3.3050  -3.3017  -3.3011  -3.2786
    -3.2726  -3.2617  -3.2583  -3.2562  -3.2185  -3.2181  -3.2092  -3.2012
    -3.2011  -3.1864  -3.1545  -3.1541  -3.1344  -3.1173  -3.1168  -3.0681
    -3.0674  -2.9560  -2.8632  -2.8480  -2.4243  -2.4239  -2.3736  -2.3727
    -2.0013  -1.9900  -1.2635  -1.0733  -1.0687  -0.8625  -0.3843  -0.1903
    -0.1871  -0.1437  -0.1286

     the Fermi energy is    -1.6885 ev

!    total energy              =  -13113.61915036 Ry
     Harris-Foulkes estimate   =  -13113.61914847 Ry
     estimated scf accuracy    <       0.00000018 Ry

     The total energy is the sum of the following terms:

     one-electron contribution = -113458.50713532 Ry
     hartree contribution      =   56718.53776308 Ry
     xc contribution           =   -1291.75927786 Ry
     ewald contribution        =   44918.12769633 Ry
     smearing contrib. (-TS)   =      -0.01819660 Ry

     convergence has been achieved in  11 iterations

     Forces acting on atoms (Ry/au):


     negative rho (up, down):  4.726E-03 0.000E+00
     atom    1 type  1   force =    -0.00008197   -0.00003161   -0.00076257
     atom    2 type  1   force =     0.00009675    0.00003525    0.00097751
     atom    3 type  1   force =     0.00000744    0.00003657   -0.00088698
     atom    4 type  1   force =    -0.00002331   -0.00031548    0.00053021
     atom    5 type  1   force =     0.00007312   -0.00007701   -0.00097589
     atom    6 type  1   force =    -0.00060107    0.00020607   -0.00000964
     atom    7 type  1   force =    -0.00008951    0.00002190   -0.00081047
     atom    8 type  1   force =     0.00024927   -0.00010825    0.00116902
     atom    9 type  1   force =    -0.00004589   -0.00002827   -0.00080842
     atom   10 type  1   force =    -0.00000784    0.00001603    0.00109740
     atom   11 type  1   force =    -0.00005560    0.00009808   -0.00091726
     atom   12 type  1   force =     0.00021695   -0.00031816    0.00042115
     atom   13 type  1   force =     0.00009473    0.00007658   -0.00064535
     atom   14 type  1   force =    -0.00000371   -0.00021883    0.00231812
     atom   15 type  1   force =     0.00015962   -0.00007040   -0.00106246
     atom   16 type  1   force =    -0.00084016    0.00077445   -0.00057317
     atom   17 type  1   force =     0.00020672   -0.00011702   -0.00095273
     atom   18 type  1   force =    -0.00010754   -0.00001789    0.00082376
     atom   19 type  1   force =    -0.00002729    0.00011113   -0.00097488
     atom   20 type  1   force =    -0.00017097    0.00004818    0.00099512
     atom   21 type  1   force =    -0.00007940    0.00016681   -0.00049394
     atom   22 type  1   force =     0.00055151   -0.00016639    0.00020420
     atom   23 type  1   force =     0.00006992   -0.00003397   -0.00049044
     atom   24 type  1   force =     0.00045937    0.00049505    0.00046007
     atom   25 type  1   force =    -0.00007628   -0.00011289   -0.00078641
     atom   26 type  1   force =     0.00002426   -0.00001517    0.00082408
     atom   27 type  1   force =     0.00007408   -0.00002704   -0.00066408
     atom   28 type  1   force =    -0.00001420    0.00004136    0.00094475
     atom   29 type  1   force =    -0.00008779    0.00004788   -0.00091884
     atom   30 type  1   force =    -0.00006982    0.00004158    0.00103567
     atom   31 type  1   force =    -0.00013085   -0.00003186   -0.00070424
     atom   32 type  1   force =     0.00004426   -0.00007949    0.00088956
     atom   33 type  2   force =     0.00017493    0.00040915   -0.00099566
     atom   34 type  2   force =    -0.00018827   -0.00005425    0.00086413
     atom   35 type  2   force =     0.00048329    0.00032479    0.00007660
     atom   36 type  2   force =     0.00155819   -0.00064699    0.00065054
     atom   37 type  3   force =    -0.00071675    0.00075046   -0.00013102
     atom   38 type  3   force =     0.00152023   -0.00067036   -0.00020109
     atom   39 type  3   force =    -0.00017322   -0.00010735    0.00063361
     atom   40 type  3   force =    -0.00153714   -0.00000565   -0.00027663
     atom   41 type  3   force =    -0.00032303    0.00089850   -0.00013729
     atom   42 type  4   force =    -0.00050073   -0.00117477    0.00022694
     atom   43 type  4   force =    -0.00002817    0.00008035    0.00000495
     atom   44 type  4   force =     0.00016442   -0.00014058    0.00003684
     atom   45 type  4   force =     0.00038646   -0.00009739    0.00055358
     atom   46 type  4   force =    -0.00035633   -0.00005989   -0.00073647
     atom   47 type  4   force =    -0.00027866    0.00004675    0.00017812

     Total force =     0.006729     Total SCF correction =     0.001064
     SCF correction compared to forces is large: reduce conv_thr to get better values
 !ASE

     Writing output data file calc.save
 
     init_run     :     87.97s CPU     88.61s WALL (       1 calls)
     electrons    :  85848.93s CPU  86697.07s WALL (      18 calls)
     update_pot   :     84.74s CPU     94.98s WALL (      17 calls)
     forces       :   1193.51s CPU   1194.35s WALL (      18 calls)

     Called by init_run:
     wfcinit      :     65.36s CPU     65.85s WALL (       1 calls)
     potinit      :      2.00s CPU      2.07s WALL (       1 calls)

     Called by electrons:
     c_bands      :  57088.84s CPU  57731.17s WALL (     421 calls)
     sum_band     :  15056.07s CPU  15072.56s WALL (     421 calls)
     v_of_rho     :    159.96s CPU    174.34s WALL (     439 calls)
     newd         :   8420.19s CPU   8424.86s WALL (     439 calls)
     mix_rho      :   5456.01s CPU   5622.93s WALL (     421 calls)

     Called by c_bands:
     init_us_2    :    359.33s CPU    359.52s WALL (    8610 calls)
     cegterg      :  55570.84s CPU  56213.08s WALL (    4210 calls)

     Called by *egterg:
     h_psi        :  36278.80s CPU  36309.62s WALL (   15950 calls)
     s_psi        :   3323.18s CPU   3322.01s WALL (   15950 calls)
     g_psi        :     66.84s CPU     66.86s WALL (   11730 calls)
     cdiaghg      :   5231.77s CPU   5229.13s WALL (   15770 calls)

     Called by h_psi:
     add_vuspsi   :   3321.29s CPU   3320.18s WALL (   15950 calls)

     General routines
     calbec       :   4776.99s CPU   4781.53s WALL (   20340 calls)
     fft          :    228.71s CPU    246.53s WALL (    7167 calls)
     ffts         :   2502.77s CPU   2670.49s WALL (  518515 calls)
     fftw         :  27166.29s CPU  27202.15s WALL ( 7813772 calls)
     interpolate  :     30.18s CPU     32.16s WALL (     860 calls)
     davcio       :      0.02s CPU      1.14s WALL (      10 calls)
 
     Parallel routines
     fft_scatter  :   9285.95s CPU   9428.41s WALL ( 8339454 calls)
 
     PWSCF        :     1d    0h19m CPU        1d    0h33m WALL

 
   This run was terminated on:  18:40: 7   7Apr2019            

=------------------------------------------------------------------------------=
   JOB DONE.
=------------------------------------------------------------------------------=
