  python dir          : /gpfs/pace1/project/chbe-medford/medford-share/gits/frozen/ben_espresso_8_24_2017/espresso
  espresso dir        : /nv/hp22/amedford6/medford-shared/builds/espresso/5.1.r11289-pybeef/intel-16.0+mvapich2-2.2+mkl-11.3/espresso-5.1.r11289-pybeef/bin
  pseudo dir          : /gpfs/pace1/project/chbe-medford/medford-share/data/pseudos/SSSP_eff_PBE
  ase-espresso py git : GITVERSION



     Program PWSCF v.5.1rc2 starts on  9Feb2019 at 22:50:34 

     This program is part of the open-source Quantum ESPRESSO suite
     for quantum simulation of materials; please cite
         "P. Giannozzi et al., J. Phys.:Condens. Matter 21 395502 (2009);
          URL http://www.quantum-espresso.org", 
     in publications or presentations arising from this work. More details at
     http://www.quantum-espresso.org/quote

     Parallel version (MPI), running on    12 processors
     R & G space division:  proc/nbgrp/npool/nimage =      12
     Reading input from pw.inp
     Message from routine read_cards :
     DEPRECATED: no units specified in CELL_PARAMETERS card

     Current dimensions of program PWSCF are:
     Max number of different atomic species (ntypx) = 10
     Max number of k-points (npk) =  40000
     Max angular momentum in pseudopotentials (lmaxx) =  3

     IMPORTANT: XC functional enforced from input :
     Exchange-correlation      = PBE ( 1  4  3  4 0)
     Any further DFT definition will be discarded
     Please, verify this is what you really want


     Subspace diagonalization in iterative solution of the eigenvalue problem:
     a serial algorithm will be used

 
     Parallelization info
     --------------------
     sticks:   dense  smooth     PW     G-vecs:    dense   smooth      PW
     Min         396     194     53                85136    29098    4089
     Max         397     195     54                85159    29133    4096
     Sum        4753    2335    637              1021677   349383   49101
 


     bravais-lattice index     =            0
     lattice parameter (alat)  =       1.8897  a.u.
     unit-cell volume          =   10059.5283 (a.u.)^3
     number of atoms/cell      =           47
     number of atomic types    =            4
     number of electrons       =       562.00
     number of Kohn-Sham states=          291
     kinetic-energy cutoff     =      40.4243  Ry
     charge density cutoff     =     330.7439  Ry
     convergence threshold     =      7.3E-07
     mixing beta               =       0.2000
     number of iterations used =            8  local-TF  mixing
     Exchange-correlation      = PBE ( 1  4  3  4 0)
     nstep                     =           50


     celldm(1)=   1.889726  celldm(2)=   0.000000  celldm(3)=   0.000000
     celldm(4)=   0.000000  celldm(5)=   0.000000  celldm(6)=   0.000000

     crystal axes: (cart. coord. in units of alat)
               a(1) = (   7.653441   0.000000   0.000000 )  
               a(2) = (  -3.826720   6.628074   0.000000 )  
               a(3) = (   0.000000   0.000000  29.385759 )  

     reciprocal axes: (cart. coord. in units 2 pi/alat)
               b(1) = (  0.130660  0.075437  0.000000 )  
               b(2) = (  0.000000  0.150873  0.000000 )  
               b(3) = (  0.000000  0.000000  0.034030 )  


     PseudoPot. # 1 for Ru read from file:
     /gpfs/pace1/project/chbe-medford/medford-share/data/pseudos/SSSP_eff_PBE/Ru.UPF
     MD5 check sum: ee8b12a60222127e4502f4351c316942
     Pseudo is Norm-conserving, Zval = 16.0
     Generated using ONCVPSP code by D. R. Hamann
     Using radial grid of  602 points,  6 beta functions with: 
                l(1) =   0
                l(2) =   0
                l(3) =   1
                l(4) =   1
                l(5) =   2
                l(6) =   2

     PseudoPot. # 2 for O  read from file:
     /gpfs/pace1/project/chbe-medford/medford-share/data/pseudos/SSSP_eff_PBE/O.UPF
     MD5 check sum: 734c27235a0248c51dbae37a1fbe46ec
     Pseudo is Ultrasoft + core correction, Zval =  6.0
     Generated by new atomic code, or converted to UPF format
     Using radial grid of  737 points,  5 beta functions with: 
                l(1) =   0
                l(2) =   0
                l(3) =   1
                l(4) =   1
                l(5) =   2
     Q(r) pseudized with  8 coefficients,  rinner =    0.900   0.900   0.900
                                                       0.900   0.900

     PseudoPot. # 3 for C  read from file:
     /gpfs/pace1/project/chbe-medford/medford-share/data/pseudos/SSSP_eff_PBE/C.UPF
     MD5 check sum: d1aef80898a10debaa0f26306b886e00
     Pseudo is Ultrasoft + core correction, Zval =  4.0
     Generated by new atomic code, or converted to UPF format
     Using radial grid of  721 points,  4 beta functions with: 
                l(1) =   0
                l(2) =   0
                l(3) =   1
                l(4) =   1
     Q(r) pseudized with  8 coefficients,  rinner =    1.100   1.100   1.100


     PseudoPot. # 4 for  H read from file:
     /gpfs/pace1/project/chbe-medford/medford-share/data/pseudos/SSSP_eff_PBE/H.UPF
     MD5 check sum: 36633979392af7100e6f6632747262d3
     Pseudo is Ultrasoft, Zval =  1.0
     Generated using "atomic" code by A. Dal Corso  v.5.0.99 svn rev. 10869
     Using radial grid of  929 points,  2 beta functions with: 
                l(1) =   0
                l(2) =   0
     Q(r) pseudized with 0 coefficients 


     atomic species   valence    mass     pseudopotential
        Ru1           16.00   101.07000     Ru( 1.00)
        O1             6.00    15.99940     O ( 1.00)
        C1             4.00    12.01100     C ( 1.00)
        H1             1.00     1.00794      H( 1.00)

     No symmetry found



   Cartesian axes

     site n.     atom                  positions (alat units)
         1           Ru1 tau(   1) = (   0.0000000   0.0000000  10.0000000  )
         2           Ru1 tau(   2) = (   0.9566801   0.5523395  11.5622521  )
         3           Ru1 tau(   3) = (  -0.9566801   1.6570186  10.0000000  )
         4           Ru1 tau(   4) = (   0.0000000   2.2093581  11.5622521  )
         5           Ru1 tau(   5) = (  -1.9133602   3.3140371  10.0000000  )
         6           Ru1 tau(   6) = (  -0.9566801   3.8663767  11.5622521  )
         7           Ru1 tau(   7) = (  -2.8700404   4.9710557  10.0000000  )
         8           Ru1 tau(   8) = (  -1.9133602   5.5233952  11.5622521  )
         9           Ru1 tau(   9) = (   1.9133602   0.0000000  10.0000000  )
        10           Ru1 tau(  10) = (   2.8700404   0.5523395  11.5622521  )
        11           Ru1 tau(  11) = (   0.9566801   1.6570186  10.0000000  )
        12           Ru1 tau(  12) = (   1.9133602   2.2093581  11.5622521  )
        13           Ru1 tau(  13) = (   0.0000000   3.3140371  10.0000000  )
        14           Ru1 tau(  14) = (   0.9566801   3.8663767  11.5622521  )
        15           Ru1 tau(  15) = (  -0.9566801   4.9710557  10.0000000  )
        16           Ru1 tau(  16) = (   0.0000000   5.5233952  11.5622521  )
        17           Ru1 tau(  17) = (   3.8267205   0.0000000  10.0000000  )
        18           Ru1 tau(  18) = (   4.7834006   0.5523395  11.5622521  )
        19           Ru1 tau(  19) = (   2.8700404   1.6570186  10.0000000  )
        20           Ru1 tau(  20) = (   3.8267205   2.2093581  11.5622521  )
        21           Ru1 tau(  21) = (   1.9133602   3.3140371  10.0000000  )
        22           Ru1 tau(  22) = (   2.8700404   3.8663767  11.5622521  )
        23           Ru1 tau(  23) = (   0.9566801   4.9710557  10.0000000  )
        24           Ru1 tau(  24) = (   1.9133602   5.5233952  11.5622521  )
        25           Ru1 tau(  25) = (   5.7400807   0.0000000  10.0000000  )
        26           Ru1 tau(  26) = (   6.6967608   0.5523395  11.5622521  )
        27           Ru1 tau(  27) = (   4.7834006   1.6570186  10.0000000  )
        28           Ru1 tau(  28) = (   5.7400807   2.2093581  11.5622521  )
        29           Ru1 tau(  29) = (   3.8267205   3.3140371  10.0000000  )
        30           Ru1 tau(  30) = (   4.7834006   3.8663767  11.5622521  )
        31           Ru1 tau(  31) = (   2.8700404   4.9710557  10.0000000  )
        32           Ru1 tau(  32) = (   3.8267205   5.5233952  11.5622521  )
        33           O1  tau(  33) = (   0.9570000   3.8660000  14.0622521  )
        34           O1  tau(  34) = (   2.9700351   5.1455000  17.6375311  )
        35           O1  tau(  35) = (   0.1362300   3.5131000  16.1544367  )
        36           O1  tau(  36) = (   3.0362155   3.6989000  19.3857590  )
        37           C1  tau(  37) = (   2.5256743   3.2491000  15.7010757  )
        38           C1  tau(  38) = (   2.6932348   2.8736000  17.1468990  )
        39           C1  tau(  39) = (   1.0774576   3.5397000  15.3756907  )
        40           C1  tau(  40) = (   2.9150857   3.9106000  18.1887559  )
        41           C1  tau(  41) = (   2.6211491   1.6008000  17.5656429  )
        42           H1  tau(  42) = (   3.1392465   4.1173000  15.4400139  )
        43           H1  tau(  43) = (   2.8497627   2.4180000  15.0620133  )
        44           H1  tau(  44) = (   2.4470862   0.7942000  16.8601572  )
        45           H1  tau(  45) = (   2.7295197   1.3186000  18.6075462  )
        46           H1  tau(  46) = (   0.0285546   4.0697000  13.8201376  )
        47           H1  tau(  47) = (   3.1169563   5.8427000  18.3118062  )

     number of k points=     4  Fermi-Dirac smearing, width (Ry)=  0.0073
                       cart. coord. in units 2pi/alat
        k(    1) = (   0.0000000   0.0000000   0.0000000), wk =   0.5000000
        k(    2) = (   0.0000000  -0.0754367   0.0000000), wk =   0.5000000
        k(    3) = (   0.0653301  -0.0377183   0.0000000), wk =   0.5000000
        k(    4) = (  -0.0653301  -0.0377183   0.0000000), wk =   0.5000000

     Dense  grid:  1021677 G-vectors     FFT dimensions: (  90,  90, 324)

     Smooth grid:   349383 G-vectors     FFT dimensions: (  60,  60, 225)

     Largest allocated arrays     est. size (Mb)     dimensions
        Kohn-Sham Wavefunctions        16.19 Mb     (    3647,  291)
        NL pseudopotentials            37.84 Mb     (    3647,  680)
        Each V/rho on FFT grid          3.34 Mb     (  218700)
        Each G-vector array             0.65 Mb     (   85140)
        G-vector shells                 0.22 Mb     (   28927)
     Largest temporary arrays     est. size (Mb)     dimensions
        Auxiliary wavefunctions        64.78 Mb     (    3647, 1164)
        Each subspace H/S matrix       20.67 Mb     (    1164, 1164)
        Each <psi_i|beta_j> matrix      3.02 Mb     (     680,  291)
        Arrays for rho mixing          26.70 Mb     (  218700,    8)

     Initial potential from superposition of free atoms
     Check: negative starting charge=   -0.002292

     starting charge  560.04311, renormalised to  562.00000

     negative rho (up, down):  2.300E-03 0.000E+00
     Starting wfc are   42 randomized atomic wfcs +  249 random wfc

     total cpu time spent up to now is       54.0 secs

     per-process dynamical memory:   206.3 Mb

     Self-consistent Calculation

     iteration #  1     ecut=    40.42 Ry     beta=0.20
     Davidson diagonalization with overlap
     ethr =  1.00E-02,  avg # of iterations = 14.5

     negative rho (up, down):  9.479E-07 0.000E+00

     total cpu time spent up to now is      179.5 secs

     total energy              =   -6181.46583171 Ry
     Harris-Foulkes estimate   =   -6184.51607593 Ry
     estimated scf accuracy    <     135.08041322 Ry

     iteration #  2     ecut=    40.42 Ry     beta=0.20
     Davidson diagonalization with overlap
     ethr =  1.00E-02,  avg # of iterations =  1.0

     total cpu time spent up to now is      202.2 secs

     total energy              =   -6174.13976672 Ry
     Harris-Foulkes estimate   =   -6181.96237367 Ry
     estimated scf accuracy    <      84.83101786 Ry

     iteration #  3     ecut=    40.42 Ry     beta=0.20
     Davidson diagonalization with overlap
     ethr =  1.00E-02,  avg # of iterations =  7.0

     total cpu time spent up to now is      233.6 secs

     total energy              =   -6177.20286886 Ry
     Harris-Foulkes estimate   =   -6178.03884477 Ry
     estimated scf accuracy    <       8.81692206 Ry

     iteration #  4     ecut=    40.42 Ry     beta=0.20
     Davidson diagonalization with overlap
     ethr =  1.57E-03,  avg # of iterations =  3.8

     total cpu time spent up to now is      259.5 secs

     total energy              =   -6175.55235031 Ry
     Harris-Foulkes estimate   =   -6177.45263608 Ry
     estimated scf accuracy    <       5.70347867 Ry

     iteration #  5     ecut=    40.42 Ry     beta=0.20
     Davidson diagonalization with overlap
     ethr =  1.01E-03,  avg # of iterations =  4.0

     total cpu time spent up to now is      288.4 secs

     total energy              =   -6176.25666583 Ry
     Harris-Foulkes estimate   =   -6176.33682381 Ry
     estimated scf accuracy    <       1.25558904 Ry

     iteration #  6     ecut=    40.42 Ry     beta=0.20
     Davidson diagonalization with overlap
     ethr =  2.23E-04,  avg # of iterations =  2.0

     total cpu time spent up to now is      312.2 secs

     total energy              =   -6176.02737041 Ry
     Harris-Foulkes estimate   =   -6176.28074276 Ry
     estimated scf accuracy    <       0.98065449 Ry

     iteration #  7     ecut=    40.42 Ry     beta=0.20
     Davidson diagonalization with overlap
     ethr =  1.74E-04,  avg # of iterations =  6.5

     total cpu time spent up to now is      344.6 secs

     total energy              =   -6176.03638215 Ry
     Harris-Foulkes estimate   =   -6176.10812478 Ry
     estimated scf accuracy    <       0.51334316 Ry

     iteration #  8     ecut=    40.42 Ry     beta=0.20
     Davidson diagonalization with overlap
     ethr =  9.13E-05,  avg # of iterations =  3.0

     total cpu time spent up to now is      370.4 secs

     total energy              =   -6175.95260279 Ry
     Harris-Foulkes estimate   =   -6176.06120794 Ry
     estimated scf accuracy    <       0.49951790 Ry

     iteration #  9     ecut=    40.42 Ry     beta=0.20
     Davidson diagonalization with overlap
     ethr =  8.89E-05,  avg # of iterations =  2.5

     total cpu time spent up to now is      395.6 secs

     total energy              =   -6175.94378220 Ry
     Harris-Foulkes estimate   =   -6175.97561056 Ry
     estimated scf accuracy    <       0.44993134 Ry

     iteration # 10     ecut=    40.42 Ry     beta=0.20
     Davidson diagonalization with overlap
     ethr =  8.01E-05,  avg # of iterations =  4.5

     negative rho (up, down):  2.160E-05 0.000E+00

     total cpu time spent up to now is      422.7 secs

     total energy              =   -6175.94338447 Ry
     Harris-Foulkes estimate   =   -6175.96886197 Ry
     estimated scf accuracy    <       0.16884988 Ry

     iteration # 11     ecut=    40.42 Ry     beta=0.20
     Davidson diagonalization with overlap
     ethr =  3.00E-05,  avg # of iterations =  7.0

     total cpu time spent up to now is      455.5 secs

     total energy              =   -6175.94730431 Ry
     Harris-Foulkes estimate   =   -6175.96064908 Ry
     estimated scf accuracy    <       0.23072483 Ry

     iteration # 12     ecut=    40.42 Ry     beta=0.20
     Davidson diagonalization with overlap
     ethr =  3.00E-05,  avg # of iterations =  4.0

     negative rho (up, down):  2.132E-04 0.000E+00

     total cpu time spent up to now is      483.4 secs

     total energy              =   -6175.95261324 Ry
     Harris-Foulkes estimate   =   -6175.96257894 Ry
     estimated scf accuracy    <       1.53689987 Ry

     iteration # 13     ecut=    40.42 Ry     beta=0.20
     Davidson diagonalization with overlap
     ethr =  3.00E-05,  avg # of iterations =  1.0

     negative rho (up, down):  2.147E-04 0.000E+00

     total cpu time spent up to now is      506.7 secs

     total energy              =   -6175.94609652 Ry
     Harris-Foulkes estimate   =   -6175.95444837 Ry
     estimated scf accuracy    <       0.72284484 Ry

     iteration # 14     ecut=    40.42 Ry     beta=0.20
     Davidson diagonalization with overlap
     ethr =  3.00E-05,  avg # of iterations =  1.0

     negative rho (up, down):  2.806E-02 0.000E+00

     total cpu time spent up to now is      529.9 secs

     total energy              =   -6175.94102881 Ry
     Harris-Foulkes estimate   =   -6175.94740791 Ry
     estimated scf accuracy    <       0.40085402 Ry

     iteration # 15     ecut=    40.42 Ry     beta=0.20
     Davidson diagonalization with overlap
     ethr =  3.00E-05,  avg # of iterations =  2.0

     negative rho (up, down):  3.903E-02 0.000E+00

     total cpu time spent up to now is      554.9 secs

     total energy              =   -6175.94009751 Ry
     Harris-Foulkes estimate   =   -6175.94442058 Ry
     estimated scf accuracy    <       0.84687217 Ry

     iteration # 16     ecut=    40.42 Ry     beta=0.20
     Davidson diagonalization with overlap
     ethr =  3.00E-05,  avg # of iterations =  1.0

     negative rho (up, down):  1.291E-02 0.000E+00

     total cpu time spent up to now is      578.6 secs

     total energy              =   -6175.94002302 Ry
     Harris-Foulkes estimate   =   -6175.94067021 Ry
     estimated scf accuracy    <       0.64031626 Ry

     iteration # 17     ecut=    40.42 Ry     beta=0.20
     Davidson diagonalization with overlap
     ethr =  3.00E-05,  avg # of iterations =  3.0

     negative rho (up, down):  3.288E-02 0.000E+00

     total cpu time spent up to now is      604.5 secs

     total energy              =   -6175.91559916 Ry
     Harris-Foulkes estimate   =   -6175.94300998 Ry
     estimated scf accuracy    <       1.58705777 Ry

     iteration # 18     ecut=    40.42 Ry     beta=0.20
     Davidson diagonalization with overlap
     ethr =  3.00E-05,  avg # of iterations =  1.0

     negative rho (up, down):  6.208E-02 0.000E+00

     total cpu time spent up to now is      628.5 secs

     total energy              =   -6175.91025035 Ry
     Harris-Foulkes estimate   =   -6175.92351776 Ry
     estimated scf accuracy    <       0.24209181 Ry

     iteration # 19     ecut=    40.42 Ry     beta=0.20
     Davidson diagonalization with overlap
     ethr =  3.00E-05,  avg # of iterations =  1.8

     negative rho (up, down):  5.272E-02 0.000E+00

     total cpu time spent up to now is      653.6 secs

     total energy              =   -6175.90939383 Ry
     Harris-Foulkes estimate   =   -6175.91425596 Ry
     estimated scf accuracy    <       0.08423228 Ry

     iteration # 20     ecut=    40.42 Ry     beta=0.20
     Davidson diagonalization with overlap
     ethr =  1.50E-05,  avg # of iterations =  2.0

     negative rho (up, down):  4.650E-02 0.000E+00

     total cpu time spent up to now is      678.6 secs

     total energy              =   -6175.90545107 Ry
     Harris-Foulkes estimate   =   -6175.90996338 Ry
     estimated scf accuracy    <       0.06147604 Ry

     iteration # 21     ecut=    40.42 Ry     beta=0.20
     Davidson diagonalization with overlap
     ethr =  1.09E-05,  avg # of iterations =  2.8

     negative rho (up, down):  3.412E-02 0.000E+00

     total cpu time spent up to now is      705.3 secs

     total energy              =   -6175.90383488 Ry
     Harris-Foulkes estimate   =   -6175.90588031 Ry
     estimated scf accuracy    <       0.04614304 Ry

     iteration # 22     ecut=    40.42 Ry     beta=0.20
     Davidson diagonalization with overlap
     ethr =  8.21E-06,  avg # of iterations =  1.2

     negative rho (up, down):  4.090E-02 0.000E+00

     total cpu time spent up to now is      730.2 secs

     total energy              =   -6175.89438667 Ry
     Harris-Foulkes estimate   =   -6175.90405405 Ry
     estimated scf accuracy    <       0.04015042 Ry

     iteration # 23     ecut=    40.42 Ry     beta=0.20
     Davidson diagonalization with overlap
     ethr =  7.14E-06,  avg # of iterations =  3.2

     negative rho (up, down):  4.081E-02 0.000E+00

     total cpu time spent up to now is      757.9 secs

     total energy              =   -6175.89501520 Ry
     Harris-Foulkes estimate   =   -6175.89604410 Ry
     estimated scf accuracy    <       0.02018703 Ry

     iteration # 24     ecut=    40.42 Ry     beta=0.20
     Davidson diagonalization with overlap
     ethr =  3.59E-06,  avg # of iterations =  2.5

     negative rho (up, down):  3.170E-02 0.000E+00

     total cpu time spent up to now is      783.9 secs

     total energy              =   -6175.89444876 Ry
     Harris-Foulkes estimate   =   -6175.89519443 Ry
     estimated scf accuracy    <       0.01799275 Ry

     iteration # 25     ecut=    40.42 Ry     beta=0.20
     Davidson diagonalization with overlap
     ethr =  3.20E-06,  avg # of iterations =  1.0

     negative rho (up, down):  1.033E-02 0.000E+00

     total cpu time spent up to now is      808.5 secs

     total energy              =   -6175.89308345 Ry
     Harris-Foulkes estimate   =   -6175.89448273 Ry
     estimated scf accuracy    <       0.01638442 Ry

     iteration # 26     ecut=    40.42 Ry     beta=0.20
     Davidson diagonalization with overlap
     ethr =  2.92E-06,  avg # of iterations =  3.0

     negative rho (up, down):  1.953E-02 0.000E+00

     total cpu time spent up to now is      835.4 secs

     total energy              =   -6175.89250689 Ry
     Harris-Foulkes estimate   =   -6175.89319448 Ry
     estimated scf accuracy    <       0.01334193 Ry

     iteration # 27     ecut=    40.42 Ry     beta=0.20
     Davidson diagonalization with overlap
     ethr =  2.37E-06,  avg # of iterations =  2.5

     negative rho (up, down):  4.623E-02 0.000E+00

     total cpu time spent up to now is      861.6 secs

     total energy              =   -6175.89076397 Ry
     Harris-Foulkes estimate   =   -6175.89259016 Ry
     estimated scf accuracy    <       0.01197093 Ry

     iteration # 28     ecut=    40.42 Ry     beta=0.20
     Davidson diagonalization with overlap
     ethr =  2.13E-06,  avg # of iterations =  5.0

     negative rho (up, down):  4.253E-02 0.000E+00

     total cpu time spent up to now is      892.0 secs

     total energy              =   -6175.89117470 Ry
     Harris-Foulkes estimate   =   -6175.89116854 Ry
     estimated scf accuracy    <       0.00721933 Ry

     iteration # 29     ecut=    40.42 Ry     beta=0.20
     Davidson diagonalization with overlap
     ethr =  1.28E-06,  avg # of iterations =  3.0

     negative rho (up, down):  6.676E-02 0.000E+00

     total cpu time spent up to now is      920.3 secs

     total energy              =   -6175.88851409 Ry
     Harris-Foulkes estimate   =   -6175.89173982 Ry
     estimated scf accuracy    <       0.01057364 Ry

     iteration # 30     ecut=    40.42 Ry     beta=0.20
     Davidson diagonalization with overlap
     ethr =  1.28E-06,  avg # of iterations =  4.0

     negative rho (up, down):  5.697E-02 0.000E+00

     total cpu time spent up to now is      950.7 secs

     total energy              =   -6175.88913411 Ry
     Harris-Foulkes estimate   =   -6175.88964941 Ry
     estimated scf accuracy    <       0.00442581 Ry

     iteration # 31     ecut=    40.42 Ry     beta=0.20
     Davidson diagonalization with overlap
     ethr =  7.88E-07,  avg # of iterations =  4.0

     negative rho (up, down):  2.875E-02 0.000E+00

     total cpu time spent up to now is      981.5 secs

     total energy              =   -6175.88722620 Ry
     Harris-Foulkes estimate   =   -6175.88963688 Ry
     estimated scf accuracy    <       0.00430368 Ry

     iteration # 32     ecut=    40.42 Ry     beta=0.20
     Davidson diagonalization with overlap
     ethr =  7.66E-07,  avg # of iterations =  4.2

     negative rho (up, down):  2.143E-02 0.000E+00

     total cpu time spent up to now is     1012.1 secs

     total energy              =   -6175.88738753 Ry
     Harris-Foulkes estimate   =   -6175.88760519 Ry
     estimated scf accuracy    <       0.00073187 Ry

     iteration # 33     ecut=    40.42 Ry     beta=0.20
     Davidson diagonalization with overlap
     ethr =  1.30E-07,  avg # of iterations =  4.2

     negative rho (up, down):  2.137E-02 0.000E+00

     total cpu time spent up to now is     1042.4 secs

     total energy              =   -6175.88745242 Ry
     Harris-Foulkes estimate   =   -6175.88744392 Ry
     estimated scf accuracy    <       0.00059779 Ry

     iteration # 34     ecut=    40.42 Ry     beta=0.20
     Davidson diagonalization with overlap
     ethr =  1.06E-07,  avg # of iterations =  1.0

     negative rho (up, down):  1.131E-02 0.000E+00

     total cpu time spent up to now is     1067.1 secs

     total energy              =   -6175.88723834 Ry
     Harris-Foulkes estimate   =   -6175.88745460 Ry
     estimated scf accuracy    <       0.00055732 Ry

     iteration # 35     ecut=    40.42 Ry     beta=0.20
     Davidson diagonalization with overlap
     ethr =  9.92E-08,  avg # of iterations =  4.0

     negative rho (up, down):  9.908E-03 0.000E+00

     total cpu time spent up to now is     1101.4 secs

     total energy              =   -6175.88724343 Ry
     Harris-Foulkes estimate   =   -6175.88736118 Ry
     estimated scf accuracy    <       0.00054561 Ry

     iteration # 36     ecut=    40.42 Ry     beta=0.20
     Davidson diagonalization with overlap
     ethr =  9.71E-08,  avg # of iterations =  5.0

     negative rho (up, down):  9.636E-03 0.000E+00

     total cpu time spent up to now is     1133.2 secs

     total energy              =   -6175.88727188 Ry
     Harris-Foulkes estimate   =   -6175.88727744 Ry
     estimated scf accuracy    <       0.00020170 Ry

     iteration # 37     ecut=    40.42 Ry     beta=0.20
     Davidson diagonalization with overlap
     ethr =  3.59E-08,  avg # of iterations =  1.0

     negative rho (up, down):  8.293E-03 0.000E+00

     total cpu time spent up to now is     1158.1 secs

     total energy              =   -6175.88723984 Ry
     Harris-Foulkes estimate   =   -6175.88727296 Ry
     estimated scf accuracy    <       0.00017523 Ry

     iteration # 38     ecut=    40.42 Ry     beta=0.20
     Davidson diagonalization with overlap
     ethr =  3.12E-08,  avg # of iterations =  3.2

     negative rho (up, down):  6.779E-03 0.000E+00

     total cpu time spent up to now is     1188.0 secs

     total energy              =   -6175.88720940 Ry
     Harris-Foulkes estimate   =   -6175.88724786 Ry
     estimated scf accuracy    <       0.00006332 Ry

     iteration # 39     ecut=    40.42 Ry     beta=0.20
     Davidson diagonalization with overlap
     ethr =  1.13E-08,  avg # of iterations =  3.2

     negative rho (up, down):  5.277E-03 0.000E+00

     total cpu time spent up to now is     1217.7 secs

     total energy              =   -6175.88717873 Ry
     Harris-Foulkes estimate   =   -6175.88721326 Ry
     estimated scf accuracy    <       0.00003494 Ry

     iteration # 40     ecut=    40.42 Ry     beta=0.20
     Davidson diagonalization with overlap
     ethr =  6.22E-09,  avg # of iterations =  3.0

     negative rho (up, down):  3.023E-03 0.000E+00

     total cpu time spent up to now is     1246.6 secs

     total energy              =   -6175.88715013 Ry
     Harris-Foulkes estimate   =   -6175.88717983 Ry
     estimated scf accuracy    <       0.00002389 Ry

     iteration # 41     ecut=    40.42 Ry     beta=0.20
     Davidson diagonalization with overlap
     ethr =  4.25E-09,  avg # of iterations =  3.8

     negative rho (up, down):  2.405E-03 0.000E+00

     total cpu time spent up to now is     1276.1 secs

     total energy              =   -6175.88714149 Ry
     Harris-Foulkes estimate   =   -6175.88715139 Ry
     estimated scf accuracy    <       0.00001129 Ry

     iteration # 42     ecut=    40.42 Ry     beta=0.20
     Davidson diagonalization with overlap
     ethr =  2.01E-09,  avg # of iterations =  4.0

     negative rho (up, down):  1.848E-03 0.000E+00

     total cpu time spent up to now is     1305.6 secs

     total energy              =   -6175.88713765 Ry
     Harris-Foulkes estimate   =   -6175.88714215 Ry
     estimated scf accuracy    <       0.00000430 Ry

     iteration # 43     ecut=    40.42 Ry     beta=0.20
     Davidson diagonalization with overlap
     ethr =  7.65E-10,  avg # of iterations =  4.0

     negative rho (up, down):  1.912E-03 0.000E+00

     total cpu time spent up to now is     1335.6 secs

     total energy              =   -6175.88713805 Ry
     Harris-Foulkes estimate   =   -6175.88713789 Ry
     estimated scf accuracy    <       0.00000239 Ry

     iteration # 44     ecut=    40.42 Ry     beta=0.20
     Davidson diagonalization with overlap
     ethr =  4.24E-10,  avg # of iterations =  3.5

     negative rho (up, down):  2.036E-03 0.000E+00

     total cpu time spent up to now is     1365.0 secs

     total energy              =   -6175.88713841 Ry
     Harris-Foulkes estimate   =   -6175.88713816 Ry
     estimated scf accuracy    <       0.00000139 Ry

     iteration # 45     ecut=    40.42 Ry     beta=0.20
     Davidson diagonalization with overlap
     ethr =  2.48E-10,  avg # of iterations =  4.0

     negative rho (up, down):  1.925E-03 0.000E+00

     total cpu time spent up to now is     1397.9 secs

     total energy              =   -6175.88713884 Ry
     Harris-Foulkes estimate   =   -6175.88713867 Ry
     estimated scf accuracy    <       0.00000186 Ry

     iteration # 46     ecut=    40.42 Ry     beta=0.20
     Davidson diagonalization with overlap
     ethr =  2.48E-10,  avg # of iterations =  4.0

     negative rho (up, down):  2.010E-03 0.000E+00

     total cpu time spent up to now is     1426.0 secs

     End of self-consistent calculation

          k = 0.0000 0.0000 0.0000 ( 43691 PWs)   bands (ev):

   -76.5035 -74.5582 -74.5543 -74.5531 -74.5518 -74.5498 -74.5479 -73.3503
   -71.8525 -71.8465 -71.8444 -71.8436 -71.8417 -71.8396 -71.7380 -71.7307
   -71.7304 -71.7296 -71.7273 -71.7265 -71.5702 -71.5655 -71.5622 -70.3832
   -70.3781 -70.3748 -70.3004 -70.2909 -70.2908 -70.2896 -70.2876 -70.2867
   -50.6113 -50.6108 -50.6086 -49.3024 -49.3019 -49.3000 -48.1180 -48.1163
   -48.1157 -48.1150 -48.1135 -48.1135 -48.0810 -48.0800 -48.0770 -48.0768
   -48.0761 -48.0754 -47.6815 -46.3207 -46.3110 -46.3093 -46.3088 -46.3066
   -46.3048 -45.0816 -45.0801 -45.0791 -45.0775 -45.0765 -45.0759 -44.9222
   -44.9211 -44.9202 -44.9192 -44.9176 -44.9164 -42.9127 -42.9104 -42.9093
   -42.9086 -42.9070 -42.9063 -42.5171 -42.5156 -42.5145 -42.5125 -42.5111
   -42.5104 -42.3980 -42.3918 -42.3877 -41.7974 -41.7903 -41.7889 -41.7888
   -41.7869 -41.7860 -41.3153 -41.3137 -41.3127 -40.0061 -39.9986 -39.9947
   -39.8166 -39.8104 -39.8096 -39.8084 -39.8072 -39.8056 -39.8046 -39.4003
   -39.3861 -39.3857 -39.3841 -39.3830 -39.3809 -39.1829 -39.1762 -39.1745
   -39.1733 -39.1715 -39.1701 -39.1693 -39.1672 -39.1651 -37.9871 -37.9861
   -37.9844 -37.9830 -37.9814 -37.9803 -37.8351 -37.8350 -36.7241 -36.7240
   -19.8075 -19.0194 -17.3737 -16.6203 -15.1109 -15.1104 -15.1098 -12.2128
   -12.1766 -12.1758 -12.1724 -11.8897 -11.8884 -11.8878 -11.8865 -11.8860
   -11.8850 -10.6703 -10.6688 -10.6672 -10.6079 -10.5981 -10.5971 -10.5955
   -10.5934 -10.5920 -10.1061  -9.8648  -9.0796  -9.0660  -9.0648  -9.0604
    -9.0595  -9.0586  -8.5098  -8.4859  -8.4837  -8.4773  -8.4747  -8.4725
    -8.2489  -7.6391  -6.8236  -6.8226  -6.8110  -6.2517  -6.1450  -6.1388
    -6.1297  -6.1278  -6.1269  -6.1073  -6.0511  -6.0486  -6.0483  -6.0476
    -6.0466  -6.0456  -5.3391  -5.1230  -5.1230  -4.2781  -4.2621  -4.2602
    -4.2554  -4.2541  -4.2524  -4.2386  -4.0967  -3.9265  -3.9201  -3.9199
    -3.5564  -3.5500  -3.5470  -3.5469  -3.5451  -3.5444  -3.5245  -3.5064
    -3.5038  -3.5031  -3.4911  -3.4049  -3.2649  -2.9172  -2.3569  -2.0133
    -1.9106  -1.9090  -1.9073  -1.7651  -1.4649  -1.2089  -1.1008  -0.5194
    -0.5189  -0.5156  -0.5147  -0.5138  -0.5127  -0.4149  -0.2822  -0.1886
    -0.1876  -0.1856  -0.1843  -0.1832  -0.1794  -0.0053  -0.0035   0.0032
     0.0134   0.1810   0.3666   0.6735   0.6764   0.6776   0.6792   0.6827
     0.6848   0.7668   1.1445   1.5232   1.5238   1.5257   1.5268   1.5275
     1.5277   1.6545   1.7385   2.2136   2.3914   2.3920   2.3929   2.3935
     2.3939   2.3944   2.8899   2.8985   2.9077   2.9092   2.9121   2.9148
     3.8530   3.8596   3.8770   4.0503   4.0631   4.0809   4.0837   4.1005
     4.1303   4.4566   4.4568   4.5684   4.5689   4.5716   4.5729   4.5733
     4.5735   5.5030   5.5951

          k = 0.0000-0.0754 0.0000 ( 43692 PWs)   bands (ev):

   -75.9855 -75.9848 -75.0076 -75.0050 -73.3194 -73.3161 -73.3152 -73.3135
   -72.9293 -72.9286 -72.6739 -72.6722 -72.1731 -72.1700 -71.6546 -71.6539
   -71.6508 -71.6490 -71.0411 -71.0366 -71.0359 -71.0342 -70.7521 -70.7490
   -70.7215 -70.7194 -70.3337 -70.3331 -70.3298 -70.3277 -70.1974 -70.1941
   -49.8260 -49.8229 -49.8228 -49.8220 -49.0867 -49.0846 -48.9772 -48.9750
   -48.5552 -48.5525 -48.5521 -48.5517 -47.8927 -47.8906 -47.7158 -47.7154
   -47.2552 -47.2525 -47.1748 -47.1736 -47.1729 -47.1722 -46.5281 -46.5230
   -46.5002 -46.4970 -46.4954 -46.4946 -46.2369 -46.2348 -44.2240 -44.2229
   -43.8609 -43.8580 -43.8570 -43.8543 -43.3941 -43.3927 -43.3521 -43.3502
   -43.1816 -43.1798 -43.1791 -43.1785 -42.4372 -42.4317 -42.4303 -42.4277
   -41.7844 -41.7831 -41.3502 -41.3480 -41.3473 -41.3459 -40.9573 -40.9532
   -40.9044 -40.9032 -40.7726 -40.7705 -40.4952 -40.4929 -40.4923 -40.4912
   -40.0045 -39.9994 -39.9134 -39.9109 -39.9091 -39.9083 -39.5828 -39.5775
   -39.5753 -39.5727 -39.4898 -39.4852 -39.3303 -39.3283 -39.1409 -39.1358
   -39.0601 -39.0569 -39.0024 -38.9974 -38.9959 -38.9950 -38.8392 -38.8380
   -38.5792 -38.5774 -38.4929 -38.4909 -38.2644 -38.2614 -37.0854 -37.0829
   -19.8075 -19.0193 -17.3737 -16.6204 -14.2459 -14.2444 -12.4730 -12.4693
   -12.4691 -12.4681 -12.2094 -11.5307 -11.5275 -11.4264 -11.4223 -11.3431
   -11.3360 -11.3320 -11.3309 -10.9367 -10.9359 -10.9352 -10.9341 -10.1109
    -9.6872  -9.6840  -9.6815  -9.6801  -9.3746  -9.3731  -9.2272  -9.2186
    -8.8136  -8.8027  -8.5120  -8.5102  -8.2470  -8.0255  -8.0183  -8.0167
    -8.0166  -7.6473  -7.1306  -7.1281  -6.5654  -6.5522  -6.3922  -6.3772
    -6.3741  -6.3727  -6.3718  -6.3705  -6.3694  -6.3688  -6.2578  -6.2543
    -5.6399  -5.6294  -5.5644  -5.5514  -5.5464  -5.5442  -5.5257  -5.5194
    -5.3520  -4.9568  -4.9545  -4.3999  -4.3588  -4.3432  -4.2713  -4.2203
    -4.1505  -4.0992  -4.0088  -3.8321  -3.5124  -3.5090  -3.5021  -3.5005
    -3.3601  -3.3475  -3.3464  -3.2993  -3.2470  -2.9212  -2.5309  -2.5289
    -2.3674  -2.3066  -2.3059  -2.0100  -1.8987  -1.8077  -1.8042  -1.8029
    -1.7668  -1.6349  -1.4559  -1.4316  -1.4273  -1.4236  -1.0831  -0.7042
    -0.7037  -0.7003  -0.6993  -0.5244  -0.5206  -0.4251  -0.2280  -0.0918
     0.0502   0.5901   0.6450   0.7848   1.0194   1.0296   1.4429   1.5711
     1.5745   1.6211   1.6759   1.7298   1.9549   1.9799   2.0206   2.0255
     2.2133   2.4089   2.4107   2.6207   2.6689   2.9088   2.9375   3.0316
     3.0356   3.0374   3.0949   3.3730   3.3755   3.3935   3.3976   3.3990
     3.4394   3.5316   3.5337   4.7593   4.7744   4.8700   4.8902   4.9003
     4.9016   4.9999   5.0367   5.0773   5.3293   5.6436   5.6547   5.6565
     5.6664   5.8069   5.8155

          k = 0.0653-0.0377 0.0000 ( 43692 PWs)   bands (ev):

   -75.9874 -75.9829 -75.0079 -75.0047 -73.3204 -73.3162 -73.3150 -73.3125
   -72.9315 -72.9263 -72.6751 -72.6709 -72.1734 -72.1697 -71.6543 -71.6530
   -71.6521 -71.6488 -71.0424 -71.0371 -71.0352 -71.0329 -70.7524 -70.7484
   -70.7230 -70.7181 -70.3328 -70.3326 -70.3310 -70.3280 -70.1976 -70.1938
   -49.8269 -49.8257 -49.8211 -49.8198 -49.0860 -49.0854 -48.9775 -48.9749
   -48.5561 -48.5551 -48.5505 -48.5497 -47.8928 -47.8904 -47.7173 -47.7140
   -47.2576 -47.2500 -47.1749 -47.1741 -47.1725 -47.1720 -46.5289 -46.5227
   -46.5005 -46.4970 -46.4955 -46.4939 -46.2369 -46.2346 -44.2241 -44.2228
   -43.8606 -43.8580 -43.8572 -43.8544 -43.3941 -43.3926 -43.3536 -43.3489
   -43.1816 -43.1809 -43.1789 -43.1777 -42.4358 -42.4333 -42.4292 -42.4285
   -41.7846 -41.7829 -41.3502 -41.3486 -41.3464 -41.3461 -40.9574 -40.9529
   -40.9063 -40.9012 -40.7731 -40.7701 -40.4959 -40.4945 -40.4917 -40.4895
   -40.0047 -39.9993 -39.9136 -39.9109 -39.9095 -39.9079 -39.5821 -39.5778
   -39.5749 -39.5736 -39.4911 -39.4838 -39.3305 -39.3281 -39.1411 -39.1356
   -39.0612 -39.0556 -39.0036 -38.9972 -38.9958 -38.9942 -38.8413 -38.8357
   -38.5784 -38.5783 -38.4943 -38.4894 -38.2648 -38.2613 -37.0868 -37.0813
   -19.8075 -19.0193 -17.3736 -16.6204 -14.2480 -14.2424 -12.4730 -12.4720
   -12.4677 -12.4662 -12.2094 -11.5322 -11.5270 -11.4292 -11.4218 -11.3417
   -11.3386 -11.3303 -11.3290 -10.9377 -10.9356 -10.9344 -10.9342 -10.1078
    -9.6883  -9.6870  -9.6804  -9.6787  -9.3749  -9.3727  -9.2281  -9.2172
    -8.8162  -8.8012  -8.5116  -8.5105  -8.2560  -8.0257  -8.0225  -8.0153
    -8.0147  -7.6436  -7.1303  -7.1258  -6.5678  -6.5508  -6.3928  -6.3742
    -6.3729  -6.3720  -6.3714  -6.3709  -6.3690  -6.3684  -6.2639  -6.2543
    -5.6557  -5.6273  -5.5557  -5.5506  -5.5452  -5.5437  -5.5258  -5.5187
    -5.3369  -4.9559  -4.9550  -4.3946  -4.3583  -4.3427  -4.2634  -4.2235
    -4.1857  -4.0561  -4.0214  -3.8060  -3.5101  -3.5094  -3.5055  -3.4991
    -3.3927  -3.3483  -3.3457  -3.3015  -3.2368  -2.9188  -2.5310  -2.5290
    -2.3708  -2.3085  -2.3040  -2.0240  -1.8870  -1.8107  -1.8045  -1.8015
    -1.7270  -1.6551  -1.5130  -1.4446  -1.4316  -1.4246  -1.0826  -0.7044
    -0.7040  -0.7005  -0.6992  -0.5254  -0.5217  -0.4133  -0.1384  -0.0987
     0.0316   0.5540   0.6478   0.7770   1.0200   1.0229   1.4348   1.5720
     1.5786   1.6132   1.6774   1.7385   1.9413   1.9670   2.0210   2.0255
     2.2113   2.4091   2.4109   2.6360   2.6563   2.8973   2.9650   3.0272
     3.0343   3.0368   3.0995   3.3727   3.3799   3.3899   3.3980   3.3998
     3.4416   3.5298   3.5356   4.7450   4.7742   4.8834   4.8946   4.9005
     4.9016   5.0181   5.0450   5.0900   5.2806   5.6415   5.6525   5.6539
     5.6597   5.8076   5.8149

          k =-0.0653-0.0377 0.0000 ( 43692 PWs)   bands (ev):

   -75.9863 -75.9841 -75.0076 -75.0050 -73.3201 -73.3158 -73.3148 -73.3134
   -72.9299 -72.9280 -72.6747 -72.6713 -72.1730 -72.1701 -71.6565 -71.6543
   -71.6494 -71.6481 -71.0417 -71.0365 -71.0353 -71.0341 -70.7520 -70.7488
   -70.7225 -70.7186 -70.3354 -70.3338 -70.3283 -70.3268 -70.1973 -70.1942
   -49.8268 -49.8235 -49.8221 -49.8211 -49.0868 -49.0846 -48.9772 -48.9751
   -48.5557 -48.5529 -48.5518 -48.5507 -47.8928 -47.8907 -47.7162 -47.7152
   -47.2551 -47.2526 -47.1747 -47.1741 -47.1725 -47.1722 -46.5278 -46.5233
   -46.5007 -46.4958 -46.4956 -46.4949 -46.2367 -46.2348 -44.2240 -44.2228
   -43.8618 -43.8578 -43.8564 -43.8544 -43.3940 -43.3926 -43.3525 -43.3497
   -43.1827 -43.1802 -43.1781 -43.1779 -42.4385 -42.4328 -42.4300 -42.4259
   -41.7844 -41.7830 -41.3502 -41.3478 -41.3473 -41.3459 -40.9570 -40.9533
   -40.9052 -40.9022 -40.7725 -40.7706 -40.4963 -40.4933 -40.4925 -40.4897
   -40.0043 -39.9997 -39.9142 -39.9097 -39.9096 -39.9083 -39.5836 -39.5796
   -39.5736 -39.5714 -39.4907 -39.4845 -39.3302 -39.3284 -39.1406 -39.1361
   -39.0603 -39.0568 -39.0027 -38.9968 -38.9958 -38.9953 -38.8400 -38.8371
   -38.5792 -38.5775 -38.4938 -38.4898 -38.2644 -38.2616 -37.0862 -37.0818
   -19.8075 -19.0193 -17.3737 -16.6204 -14.2464 -14.2439 -12.4714 -12.4699
   -12.4693 -12.4683 -12.2096 -11.5315 -11.5275 -11.4282 -11.4214 -11.3414
   -11.3362 -11.3327 -11.3308 -10.9367 -10.9361 -10.9349 -10.9340 -10.1111
    -9.6866  -9.6844  -9.6816  -9.6799  -9.3752  -9.3727  -9.2268  -9.2189
    -8.8145  -8.8020  -8.5119  -8.5102  -8.2474  -8.0253  -8.0186  -8.0170
    -8.0162  -7.6430  -7.1328  -7.1302  -6.5663  -6.5525  -6.3901  -6.3790
    -6.3741  -6.3731  -6.3719  -6.3708  -6.3692  -6.3690  -6.2554  -6.2540
    -5.6373  -5.6305  -5.5719  -5.5496  -5.5468  -5.5431  -5.5264  -5.5188
    -5.3497  -4.9561  -4.9551  -4.3933  -4.3584  -4.3430  -4.2677  -4.2196
    -4.1724  -4.0675  -4.0196  -3.8242  -3.5152  -3.5095  -3.5013  -3.5008
    -3.3478  -3.3467  -3.3338  -3.3032  -3.2758  -2.9180  -2.5309  -2.5290
    -2.3732  -2.3070  -2.3056  -2.0087  -1.8773  -1.8080  -1.8049  -1.8035
    -1.7575  -1.6357  -1.5306  -1.4311  -1.4277  -1.4163  -1.0835  -0.7041
    -0.7039  -0.7001  -0.6989  -0.5246  -0.5217  -0.4233  -0.1803  -0.0796
     0.0358   0.5916   0.6342   0.7766   1.0190   1.0256   1.4343   1.5695
     1.5804   1.6150   1.6734   1.7288   1.9485   1.9803   2.0211   2.0234
     2.2132   2.4092   2.4109   2.6283   2.6674   2.9076   2.9594   3.0321
     3.0341   3.0391   3.0842   3.3696   3.3820   3.3874   3.3972   3.3992
     3.4396   3.5314   3.5341   4.7578   4.7741   4.8691   4.8920   4.8988
     4.9032   5.0118   5.0384   5.0806   5.3137   5.6381   5.6542   5.6590
     5.6657   5.8014   5.8187

     the Fermi energy is     4.8540 ev

!    total energy              =   -6175.88713872 Ry
     Harris-Foulkes estimate   =   -6175.88713896 Ry
     estimated scf accuracy    <       0.00000025 Ry

     The total energy is the sum of the following terms:

     one-electron contribution = -137313.67115603 Ry
     hartree contribution      =   68626.16373069 Ry
     xc contribution           =    -745.91681830 Ry
     ewald contribution        =   63257.59930188 Ry
     smearing contrib. (-TS)   =      -0.06219695 Ry

     convergence has been achieved in  46 iterations

     Forces acting on atoms (Ry/au):


     negative rho (up, down):  2.010E-03 0.000E+00
     atom    1 type  1   force =     0.00052450   -0.00073100   -1.95942814
     atom    2 type  1   force =     0.00099738    0.00135389    1.95874781
     atom    3 type  1   force =    -0.00433600   -0.00106628   -1.95472981
     atom    4 type  1   force =     0.00139590    0.00035600    1.95210499
     atom    5 type  1   force =    -0.00066069   -0.00131277   -1.96128444
     atom    6 type  1   force =    -0.00477981   -0.00363662    1.95491624
     atom    7 type  1   force =     0.00046314    0.00071897   -1.95485765
     atom    8 type  1   force =    -0.00094054    0.00155109    1.95383721
     atom    9 type  1   force =     0.00006173   -0.00165635   -1.95669748
     atom   10 type  1   force =    -0.00174965   -0.00089298    1.95436330
     atom   11 type  1   force =    -0.00118243   -0.00309903   -1.96401058
     atom   12 type  1   force =     0.00205972    0.00509156    1.95537223
     atom   13 type  1   force =    -0.00117695   -0.00110604   -1.95475023
     atom   14 type  1   force =     0.01114992   -0.00268594    1.92845765
     atom   15 type  1   force =    -0.00446603    0.00156760   -1.96272976
     atom   16 type  1   force =     0.00359708    0.00555111    1.95365611
     atom   17 type  1   force =     0.00110991    0.00009177   -1.96088248
     atom   18 type  1   force =    -0.00129673   -0.00022977    1.96098506
     atom   19 type  1   force =     0.00287343   -0.00059963   -1.95340517
     atom   20 type  1   force =    -0.00202449    0.00058772    1.95947176
     atom   21 type  1   force =    -0.00108064    0.00101386   -1.96364850
     atom   22 type  1   force =    -0.00443701   -0.00456116    1.95534703
     atom   23 type  1   force =     0.00123842    0.00130431   -1.95468722
     atom   24 type  1   force =    -0.00293589   -0.00217795    1.95313494
     atom   25 type  1   force =    -0.00192312    0.00428106   -1.95661855
     atom   26 type  1   force =     0.00239203   -0.00096876    1.95464061
     atom   27 type  1   force =     0.00267465   -0.00032859   -1.96830364
     atom   28 type  1   force =    -0.00047698    0.00026929    1.96049934
     atom   29 type  1   force =     0.00294139   -0.00284304   -1.95580776
     atom   30 type  1   force =    -0.00020926    0.00241179    1.95382617
     atom   31 type  1   force =     0.00253497    0.00146343   -1.96301997
     atom   32 type  1   force =    -0.00039559   -0.00052051    1.95851042
     atom   33 type  2   force =     0.02150697    0.00247816    0.02940398
     atom   34 type  2   force =     0.00125428    0.02815185   -0.01848948
     atom   35 type  2   force =     0.02235638    0.00029391   -0.02857027
     atom   36 type  2   force =    -0.00092640    0.00471254   -0.01540748
     atom   37 type  3   force =    -0.00526264   -0.00871898    0.01842023
     atom   38 type  3   force =     0.00390274   -0.01903590    0.01107567
     atom   39 type  3   force =    -0.01809891    0.00440802    0.04781494
     atom   40 type  3   force =     0.00260192   -0.00077966    0.03039891
     atom   41 type  3   force =     0.00095732   -0.00067708   -0.00971415
     atom   42 type  4   force =     0.00017853    0.00455430   -0.00496170
     atom   43 type  4   force =     0.00229591   -0.00277655   -0.00586684
     atom   44 type  4   force =    -0.00006572   -0.00602347   -0.00634382
     atom   45 type  4   force =     0.00083615    0.00610792    0.00745257
     atom   46 type  4   force =    -0.03175172    0.00498206    0.01562338
     atom   47 type  4   force =    -0.00172719   -0.01687416    0.00615456

     Total force =    11.069027     Total SCF correction =     0.004405
 !ASE

     Writing output data file calc.save
     Check: negative starting charge=   -0.002292
     NEW-OLD atomic charge density approx. for the potential
     Check: negative starting charge=   -0.002245

     negative rho (up, down):  2.644E-03 0.000E+00

     total cpu time spent up to now is     1435.7 secs

     per-process dynamical memory:   229.0 Mb

     Self-consistent Calculation

     iteration #  1     ecut=    40.42 Ry     beta=0.20
     Davidson diagonalization with overlap
     c_bands:  5 eigenvalues not converged
     c_bands:  1 eigenvalues not converged
     c_bands:  3 eigenvalues not converged
     ethr =  2.48E-10,  avg # of iterations = 25.5

     negative rho (up, down):  3.928E-03 0.000E+00

     total cpu time spent up to now is     1615.9 secs

     total energy              =   -6191.19803863 Ry
     Harris-Foulkes estimate   =   -6191.83368494 Ry
     estimated scf accuracy    <       8.77058630 Ry

     iteration #  2     ecut=    40.42 Ry     beta=0.20
     Davidson diagonalization with overlap
     ethr =  1.56E-03,  avg # of iterations =  1.0

     negative rho (up, down):  1.782E-02 0.000E+00

     total cpu time spent up to now is     1642.0 secs

     total energy              =   -6189.07391835 Ry
     Harris-Foulkes estimate   =   -6191.23873715 Ry
     estimated scf accuracy    <       5.96877412 Ry

     iteration #  3     ecut=    40.42 Ry     beta=0.20
     Davidson diagonalization with overlap
     ethr =  1.06E-03,  avg # of iterations =  3.2

     negative rho (up, down):  1.700E-02 0.000E+00

     total cpu time spent up to now is     1675.8 secs

     total energy              =   -6190.03074585 Ry
     Harris-Foulkes estimate   =   -6190.03477790 Ry
     estimated scf accuracy    <       0.01811858 Ry

     iteration #  4     ecut=    40.42 Ry     beta=0.20
     Davidson diagonalization with overlap
     ethr =  3.22E-06,  avg # of iterations =  9.0

     negative rho (up, down):  1.727E-02 0.000E+00

     total cpu time spent up to now is     1726.1 secs

     total energy              =   -6190.03707460 Ry
     Harris-Foulkes estimate   =   -6190.03869716 Ry
     estimated scf accuracy    <       0.00778675 Ry

     iteration #  5     ecut=    40.42 Ry     beta=0.20
     Davidson diagonalization with overlap
     ethr =  1.39E-06,  avg # of iterations =  4.5

     negative rho (up, down):  1.733E-02 0.000E+00

     total cpu time spent up to now is     1758.0 secs

     total energy              =   -6190.03726529 Ry
     Harris-Foulkes estimate   =   -6190.03750347 Ry
     estimated scf accuracy    <       0.00398307 Ry

     iteration #  6     ecut=    40.42 Ry     beta=0.20
     Davidson diagonalization with overlap
     ethr =  7.09E-07,  avg # of iterations =  3.2

     negative rho (up, down):  1.748E-02 0.000E+00

     total cpu time spent up to now is     1786.4 secs

     total energy              =   -6190.03744858 Ry
     Harris-Foulkes estimate   =   -6190.03738980 Ry
     estimated scf accuracy    <       0.00350055 Ry

     iteration #  7     ecut=    40.42 Ry     beta=0.20
     Davidson diagonalization with overlap
     ethr =  6.23E-07,  avg # of iterations =  1.0

     negative rho (up, down):  1.487E-02 0.000E+00

     total cpu time spent up to now is     1813.2 secs

     total energy              =   -6190.03661933 Ry
     Harris-Foulkes estimate   =   -6190.03746224 Ry
     estimated scf accuracy    <       0.00376313 Ry

     iteration #  8     ecut=    40.42 Ry     beta=0.20
     Davidson diagonalization with overlap
     ethr =  6.23E-07,  avg # of iterations =  6.0

     negative rho (up, down):  1.426E-02 0.000E+00

     total cpu time spent up to now is     1847.5 secs

     total energy              =   -6190.03711521 Ry
     Harris-Foulkes estimate   =   -6190.03709463 Ry
     estimated scf accuracy    <       0.00610167 Ry

     iteration #  9     ecut=    40.42 Ry     beta=0.20
     Davidson diagonalization with overlap
     ethr =  6.23E-07,  avg # of iterations =  1.8

     negative rho (up, down):  1.253E-02 0.000E+00

     total cpu time spent up to now is     1873.9 secs

     total energy              =   -6190.03632560 Ry
     Harris-Foulkes estimate   =   -6190.03718837 Ry
     estimated scf accuracy    <       0.00741735 Ry

     iteration # 10     ecut=    40.42 Ry     beta=0.20
     Davidson diagonalization with overlap
     ethr =  6.23E-07,  avg # of iterations =  8.0

     negative rho (up, down):  1.104E-02 0.000E+00

     total cpu time spent up to now is     1910.7 secs

     total energy              =   -6190.03630430 Ry
     Harris-Foulkes estimate   =   -6190.03677143 Ry
     estimated scf accuracy    <       0.00213992 Ry

     iteration # 11     ecut=    40.42 Ry     beta=0.20
     Davidson diagonalization with overlap
     ethr =  3.81E-07,  avg # of iterations =  4.2

     negative rho (up, down):  1.084E-02 0.000E+00

     total cpu time spent up to now is     1945.8 secs

     total energy              =   -6190.03630745 Ry
     Harris-Foulkes estimate   =   -6190.03666804 Ry
     estimated scf accuracy    <       0.00277994 Ry

     iteration # 12     ecut=    40.42 Ry     beta=0.20
     Davidson diagonalization with overlap
     ethr =  3.81E-07,  avg # of iterations =  8.2

     negative rho (up, down):  9.122E-03 0.000E+00

     total cpu time spent up to now is     1981.9 secs

     total energy              =   -6190.03634805 Ry
     Harris-Foulkes estimate   =   -6190.03646023 Ry
     estimated scf accuracy    <       0.00059993 Ry

     iteration # 13     ecut=    40.42 Ry     beta=0.20
     Davidson diagonalization with overlap
     ethr =  1.07E-07,  avg # of iterations =  5.0

     negative rho (up, down):  6.842E-03 0.000E+00

     total cpu time spent up to now is     2013.4 secs

     total energy              =   -6190.03616998 Ry
     Harris-Foulkes estimate   =   -6190.03638820 Ry
     estimated scf accuracy    <       0.00067546 Ry

     iteration # 14     ecut=    40.42 Ry     beta=0.20
     Davidson diagonalization with overlap
     ethr =  1.07E-07,  avg # of iterations =  7.0

     negative rho (up, down):  5.875E-03 0.000E+00

     total cpu time spent up to now is     2047.3 secs

     total energy              =   -6190.03611006 Ry
     Harris-Foulkes estimate   =   -6190.03619943 Ry
     estimated scf accuracy    <       0.00040528 Ry

     iteration # 15     ecut=    40.42 Ry     beta=0.20
     Davidson diagonalization with overlap
     ethr =  7.21E-08,  avg # of iterations =  3.2

     negative rho (up, down):  3.119E-03 0.000E+00

     total cpu time spent up to now is     2076.1 secs

     total energy              =   -6190.03605103 Ry
     Harris-Foulkes estimate   =   -6190.03613429 Ry
     estimated scf accuracy    <       0.00018380 Ry

     iteration # 16     ecut=    40.42 Ry     beta=0.20
     Davidson diagonalization with overlap
     ethr =  3.27E-08,  avg # of iterations =  4.8

     negative rho (up, down):  2.658E-03 0.000E+00

     total cpu time spent up to now is     2112.1 secs

     total energy              =   -6190.03604401 Ry
     Harris-Foulkes estimate   =   -6190.03610146 Ry
     estimated scf accuracy    <       0.00065121 Ry

     iteration # 17     ecut=    40.42 Ry     beta=0.20
     Davidson diagonalization with overlap
     ethr =  3.27E-08,  avg # of iterations =  4.8

     negative rho (up, down):  1.478E-03 0.000E+00

     total cpu time spent up to now is     2144.3 secs

     total energy              =   -6190.03606664 Ry
     Harris-Foulkes estimate   =   -6190.03605864 Ry
     estimated scf accuracy    <       0.00008053 Ry

     iteration # 18     ecut=    40.42 Ry     beta=0.20
     Davidson diagonalization with overlap
     ethr =  1.43E-08,  avg # of iterations =  4.8

     negative rho (up, down):  1.380E-03 0.000E+00

     total cpu time spent up to now is     2177.5 secs

     total energy              =   -6190.03608289 Ry
     Harris-Foulkes estimate   =   -6190.03607512 Ry
     estimated scf accuracy    <       0.00001642 Ry

     iteration # 19     ecut=    40.42 Ry     beta=0.20
     Davidson diagonalization with overlap
     ethr =  2.92E-09,  avg # of iterations =  2.0

     negative rho (up, down):  1.244E-03 0.000E+00

     total cpu time spent up to now is     2207.7 secs

     total energy              =   -6190.03609054 Ry
     Harris-Foulkes estimate   =   -6190.03608341 Ry
     estimated scf accuracy    <       0.00001183 Ry

     iteration # 20     ecut=    40.42 Ry     beta=0.20
     Davidson diagonalization with overlap
     ethr =  2.10E-09,  avg # of iterations =  4.0

     negative rho (up, down):  1.222E-03 0.000E+00

     total cpu time spent up to now is     2241.7 secs

     total energy              =   -6190.03609538 Ry
     Harris-Foulkes estimate   =   -6190.03609202 Ry
     estimated scf accuracy    <       0.00001085 Ry

     iteration # 21     ecut=    40.42 Ry     beta=0.20
     Davidson diagonalization with overlap
     ethr =  1.93E-09,  avg # of iterations =  3.0

     negative rho (up, down):  1.422E-03 0.000E+00

     total cpu time spent up to now is     2270.0 secs

     total energy              =   -6190.03609722 Ry
     Harris-Foulkes estimate   =   -6190.03609581 Ry
     estimated scf accuracy    <       0.00000645 Ry

     iteration # 22     ecut=    40.42 Ry     beta=0.20
     Davidson diagonalization with overlap
     ethr =  1.15E-09,  avg # of iterations =  3.8

     negative rho (up, down):  1.489E-03 0.000E+00

     total cpu time spent up to now is     2299.2 secs

     total energy              =   -6190.03609730 Ry
     Harris-Foulkes estimate   =   -6190.03609748 Ry
     estimated scf accuracy    <       0.00000173 Ry

     iteration # 23     ecut=    40.42 Ry     beta=0.20
     Davidson diagonalization with overlap
     ethr =  3.08E-10,  avg # of iterations =  4.8

     negative rho (up, down):  1.532E-03 0.000E+00

     total cpu time spent up to now is     2333.1 secs

     total energy              =   -6190.03609731 Ry
     Harris-Foulkes estimate   =   -6190.03609758 Ry
     estimated scf accuracy    <       0.00000254 Ry

     iteration # 24     ecut=    40.42 Ry     beta=0.20
     Davidson diagonalization with overlap
     ethr =  3.08E-10,  avg # of iterations =  3.8

     negative rho (up, down):  1.590E-03 0.000E+00

     total cpu time spent up to now is     2362.5 secs

     total energy              =   -6190.03609727 Ry
     Harris-Foulkes estimate   =   -6190.03609748 Ry
     estimated scf accuracy    <       0.00000113 Ry

     iteration # 25     ecut=    40.42 Ry     beta=0.20
     Davidson diagonalization with overlap
     ethr =  2.01E-10,  avg # of iterations =  4.5

     negative rho (up, down):  1.960E-03 0.000E+00

     total cpu time spent up to now is     2390.5 secs

     End of self-consistent calculation

          k = 0.0000 0.0000 0.0000 ( 43691 PWs)   bands (ev):

   -73.9041 -73.2489 -72.1610 -72.1553 -72.1540 -72.1527 -72.1430 -72.1424
   -71.6046 -71.5976 -71.5959 -71.5955 -71.5862 -71.5857 -69.8644 -69.8628
   -69.8591 -69.8550 -69.8530 -69.8520 -69.7847 -69.7837 -69.7807 -69.5739
   -69.5734 -69.5681 -69.5643 -69.5623 -69.5611 -69.5476 -69.5457 -69.5435
   -48.2824 -48.2800 -48.2783 -47.9521 -47.9498 -47.9483 -46.1354 -46.1292
   -46.1289 -46.1278 -46.1275 -46.1221 -46.0680 -46.0628 -46.0608 -46.0606
   -46.0600 -46.0549 -44.0959 -42.8512 -42.8438 -42.8414 -42.8389 -42.8349
   -42.8318 -42.6407 -42.6393 -42.6368 -42.6358 -42.6332 -42.6306 -42.3597
   -42.3593 -42.3567 -42.3558 -42.3552 -42.3512 -42.0637 -42.0631 -42.0602
   -42.0593 -42.0589 -42.0537 -42.0301 -42.0279 -42.0265 -42.0243 -42.0220
   -42.0201 -40.9679 -40.4418 -40.4308 -40.4270 -40.4222 -40.4212 -40.4182
   -40.3742 -40.3722 -40.3686 -40.0407 -40.0295 -40.0275 -40.0251 -40.0175
   -40.0161 -39.3963 -39.3955 -39.3896 -39.2958 -39.2832 -39.2820 -39.2770
   -39.2757 -39.2723 -39.1469 -39.1457 -39.1455 -38.7514 -38.7504 -38.7499
   -37.7930 -37.7921 -37.7879 -37.7876 -37.7863 -37.7848 -37.4626 -37.4615
   -37.4585 -37.4574 -37.4566 -37.4552 -36.1293 -36.1287 -35.9484 -35.9478
   -20.0080 -19.0229 -17.5838 -16.6988 -12.2361 -11.6933 -11.6928 -11.6918
   -10.4922 -10.4900 -10.4894 -10.2996 -10.2567 -10.2554 -10.1526  -8.5141
    -8.4980  -8.4958  -8.4942  -8.4926  -8.4894  -8.3182  -8.0574  -8.0143
    -8.0110  -8.0097  -8.0041  -7.9993  -7.8745  -7.4639  -7.4592  -7.4588
    -7.4566  -7.4555  -7.4508  -7.3090  -7.3077  -7.2914  -7.0001  -6.3607
    -6.3448  -6.3264  -6.3209  -6.3147  -6.2977  -6.0905  -5.3615  -5.2225
    -5.2040  -5.1990  -5.1964  -5.1948  -5.1805  -4.5660  -4.2846  -4.1385
    -4.0685  -4.0665  -4.0650  -4.0643  -4.0615  -4.0590  -3.9158  -3.8968
    -3.8918  -3.8835  -3.7766  -3.6026  -3.3489  -3.1407  -3.1341  -3.1329
    -3.1314  -3.1284  -3.1264  -2.9751  -2.6620  -2.6618  -2.4176  -2.2974
    -2.2972  -2.0868  -2.0364  -1.9989  -1.9976  -1.9928  -1.9907  -1.9897
    -1.9563  -1.8569  -1.5164  -1.2149  -0.8920  -0.8428  -0.8356  -0.8132
    -0.7597  -0.5367  -0.4224   0.0019   0.6728   0.6767   0.6784   0.6793
     0.6814   0.6886   0.7349   1.0768   1.4981   1.6577   2.0002   2.0015
     2.0029   2.0052   2.0059   2.0101   2.1132   2.1215   2.1246   2.1321
     2.1382   2.1671   2.1757   2.2888   2.2929   2.2972   2.3017   2.3043
     2.3885   2.4769   2.4780   2.4782   2.8003   2.8076   2.8452   3.6489
     3.6601   3.6707   3.6763   3.6915   3.7068   3.7461   3.7479   3.7485
     3.7506   3.7512   3.7585   4.1398   4.1446   4.1449   4.1453   4.1472
     4.1552   4.1811   5.1072   5.1082   5.1145   5.1156   5.1158   5.1196
     5.4628   5.5135   5.5253

          k = 0.0000-0.0754 0.0000 ( 43692 PWs)   bands (ev):

   -73.4327 -73.4277 -72.7996 -72.7938 -72.5534 -72.5470 -71.9688 -71.9623
   -71.1037 -71.0970 -71.0956 -71.0915 -70.6385 -70.6319 -70.6305 -70.6261
   -70.5872 -70.5838 -70.1915 -70.1879 -69.8247 -69.8213 -69.8202 -69.8189
   -69.5599 -69.5563 -69.5547 -69.5539 -69.2367 -69.2312 -69.1265 -69.1199
   -47.4816 -47.4806 -47.4749 -47.4743 -47.1605 -47.1596 -47.1536 -47.1532
   -46.6549 -46.6502 -46.6377 -46.6350 -46.3332 -46.3253 -46.2996 -46.2980
   -44.8092 -44.8083 -44.8038 -44.8037 -44.5701 -44.5687 -44.5644 -44.5637
   -43.7747 -43.7690 -43.6938 -43.6897 -43.3920 -43.3858 -42.9761 -42.9671
   -41.6114 -41.5991 -41.5965 -41.5946 -41.1487 -41.1465 -41.1419 -41.1375
   -40.8127 -40.8076 -40.7261 -40.7217 -40.6482 -40.6474 -40.6471 -40.6463
   -40.4973 -40.4939 -40.4929 -40.4897 -40.1490 -40.1405 -40.0762 -40.0754
   -40.0727 -40.0696 -39.7713 -39.7627 -39.7159 -39.7087 -39.7062 -39.7037
   -39.4966 -39.4891 -39.4605 -39.4595 -39.4579 -39.4552 -39.3377 -39.3282
   -39.3152 -39.3139 -39.3122 -39.3109 -39.1740 -39.1712 -39.1670 -39.1664
   -38.7746 -38.7680 -38.3950 -38.3878 -38.1922 -38.1916 -37.9491 -37.9485
   -37.8079 -37.8032 -37.6032 -37.5986 -36.6610 -36.6566 -36.4172 -36.4125
   -20.0080 -19.0229 -17.5838 -16.6989 -12.2369 -10.8558 -10.8508 -10.1993
    -9.7364  -9.7307  -9.4735  -9.4596  -9.4567  -9.4553  -8.8730  -8.8712
    -8.8684  -8.8679  -8.6813  -8.6722  -8.4350  -8.4275  -8.3006  -7.9183
    -7.7361  -7.7348  -7.7314  -7.7303  -7.6184  -7.6143  -7.6118  -7.6070
    -7.1418  -7.1343  -7.1316  -7.1181  -6.6210  -6.5913  -6.5890  -6.5864
    -6.3382  -6.2864  -6.2618  -6.2598  -6.2575  -6.2543  -6.1290  -6.1122
    -5.8318  -5.8205  -5.5588  -5.5402  -5.4850  -5.4661  -5.3665  -5.2933
    -5.2625  -5.2530  -5.2185  -5.0637  -5.0308  -5.0100  -4.9993  -4.7138
    -4.7072  -4.3280  -4.1730  -4.0249  -3.9666  -3.9422  -3.4389  -3.3360
    -3.3080  -3.2184  -3.1710  -2.9792  -2.5243  -2.5207  -2.4135  -2.0572
    -2.0025  -1.9944  -1.9281  -1.5015  -1.3145  -1.2874  -1.1806  -1.0505
    -1.0227  -0.8372  -0.8345  -0.7196  -0.6711  -0.6527  -0.5721  -0.4955
    -0.4876  -0.4796  -0.4765  -0.4328  -0.1753  -0.0439  -0.0374  -0.0334
    -0.0278   0.0804   0.1156   0.2499   0.2697   0.7352   0.7510   0.8093
     1.1405   1.2406   1.4539   1.5004   1.5028   1.5069   1.5728   1.6654
     2.0145   2.0377   2.1541   2.1588   2.1635   2.1725   2.1988   2.2111
     2.2241   2.2259   2.3889   2.9805   2.9855   3.6345   3.6376   3.6435
     3.6520   3.6540   3.6782   3.9038   3.9115   3.9333   3.9712   4.1953
     4.2036   4.2117   4.2171   4.6037   4.6245   4.9892   4.9933   4.9997
     5.0061   5.0762   5.0913   5.1961   5.2188   5.3696   5.3798   5.3839
     5.4015   5.5847   5.7920

          k = 0.0653-0.0377 0.0000 ( 43692 PWs)   bands (ev):

   -73.4341 -73.4263 -72.8006 -72.7929 -72.5528 -72.5476 -71.9682 -71.9629
   -71.1040 -71.0973 -71.0955 -71.0911 -70.6384 -70.6316 -70.6309 -70.6262
   -70.5868 -70.5842 -70.1913 -70.1880 -69.8312 -69.8220 -69.8162 -69.8158
   -69.5656 -69.5575 -69.5510 -69.5507 -69.2365 -69.2314 -69.1261 -69.1203
   -47.4858 -47.4789 -47.4749 -47.4729 -47.1643 -47.1579 -47.1540 -47.1516
   -46.6553 -46.6482 -46.6366 -46.6360 -46.3319 -46.3258 -46.2994 -46.2972
   -44.8090 -44.8076 -44.8048 -44.8036 -44.5699 -44.5677 -44.5654 -44.5640
   -43.7739 -43.7706 -43.6978 -43.6857 -43.3913 -43.3875 -42.9761 -42.9672
   -41.6129 -41.6002 -41.5965 -41.5917 -41.1481 -41.1475 -41.1428 -41.1371
   -40.8122 -40.8090 -40.7299 -40.7178 -40.6528 -40.6481 -40.6450 -40.6428
   -40.4988 -40.4933 -40.4907 -40.4904 -40.1488 -40.1412 -40.0759 -40.0751
   -40.0729 -40.0688 -39.7709 -39.7630 -39.7163 -39.7080 -39.7072 -39.7032
   -39.4961 -39.4887 -39.4607 -39.4586 -39.4575 -39.4564 -39.3386 -39.3276
   -39.3238 -39.3127 -39.3095 -39.3067 -39.1731 -39.1700 -39.1687 -39.1668
   -38.7762 -38.7673 -38.3962 -38.3874 -38.1949 -38.1879 -37.9517 -37.9448
   -37.8070 -37.8033 -37.6023 -37.5986 -36.6616 -36.6571 -36.4175 -36.4130
   -20.0080 -19.0229 -17.5838 -16.6988 -12.2366 -10.8575 -10.8497 -10.1963
    -9.7373  -9.7298  -9.4714  -9.4681  -9.4529  -9.4524  -8.8761  -8.8707
    -8.8663  -8.8659  -8.7020  -8.6688  -8.4584  -8.4257  -8.2825  -7.8942
    -7.7353  -7.7332  -7.7317  -7.7294  -7.6163  -7.6142  -7.6135  -7.6073
    -7.1476  -7.1388  -7.1298  -7.1271  -6.6111  -6.5893  -6.5877  -6.5853
    -6.3502  -6.2908  -6.2609  -6.2596  -6.2586  -6.2580  -6.1466  -6.1100
    -5.8415  -5.8202  -5.5495  -5.5452  -5.4813  -5.4660  -5.3595  -5.2742
    -5.2622  -5.2421  -5.2164  -5.0514  -5.0324  -5.0053  -4.9990  -4.7110
    -4.7081  -4.3292  -4.1658  -4.0261  -3.9704  -3.9254  -3.4750  -3.3367
    -3.2872  -3.2215  -3.1744  -2.9807  -2.5224  -2.5218  -2.4213  -2.0696
    -1.9975  -1.9931  -1.9244  -1.5160  -1.3327  -1.2974  -1.1877  -1.0587
    -1.0418  -0.8383  -0.8332  -0.6989  -0.6786  -0.6451  -0.5627  -0.4920
    -0.4895  -0.4803  -0.4755  -0.4196  -0.2164  -0.0432  -0.0417  -0.0336
    -0.0312   0.0910   0.2291   0.2388   0.2769   0.7290   0.7429   0.7728
     1.0972   1.2314   1.4557   1.4999   1.5015   1.5061   1.5642   1.6663
     2.0236   2.0703   2.1552   2.1564   2.1624   2.1671   2.1984   2.2119
     2.2219   2.2295   2.4001   2.9771   2.9890   3.6256   3.6365   3.6510
     3.6530   3.6535   3.6685   3.9021   3.9099   3.9368   3.9703   4.1893
     4.2080   4.2150   4.2217   4.6005   4.6152   4.9828   4.9956   5.0020
     5.0022   5.0475   5.0893   5.2035   5.2801   5.3626   5.3794   5.3856
     5.4001   5.6024   5.7275

          k =-0.0653-0.0377 0.0000 ( 43692 PWs)   bands (ev):

   -73.4332 -73.4272 -72.8001 -72.7932 -72.5532 -72.5472 -71.9685 -71.9626
   -71.1042 -71.0970 -71.0955 -71.0911 -70.6390 -70.6318 -70.6305 -70.6261
   -70.5869 -70.5838 -70.1915 -70.1879 -69.8258 -69.8216 -69.8198 -69.8180
   -69.5612 -69.5557 -69.5546 -69.5533 -69.2365 -69.2313 -69.1262 -69.1202
   -47.4827 -47.4811 -47.4750 -47.4729 -47.1615 -47.1598 -47.1536 -47.1521
   -46.6543 -46.6501 -46.6376 -46.6356 -46.3324 -46.3256 -46.2997 -46.2979
   -44.8086 -44.8081 -44.8047 -44.8036 -44.5692 -44.5685 -44.5650 -44.5642
   -43.7741 -43.7697 -43.6930 -43.6905 -43.3916 -43.3865 -42.9760 -42.9672
   -41.6121 -41.5989 -41.5970 -41.5936 -41.1482 -41.1471 -41.1417 -41.1380
   -40.8123 -40.8082 -40.7257 -40.7220 -40.6490 -40.6480 -40.6464 -40.6453
   -40.4972 -40.4946 -40.4931 -40.4889 -40.1487 -40.1409 -40.0766 -40.0755
   -40.0729 -40.0687 -39.7712 -39.7628 -39.7156 -39.7085 -39.7061 -39.7045
   -39.4962 -39.4892 -39.4605 -39.4589 -39.4587 -39.4551 -39.3369 -39.3277
   -39.3170 -39.3138 -39.3127 -39.3101 -39.1731 -39.1708 -39.1681 -39.1666
   -38.7754 -38.7675 -38.3957 -38.3873 -38.1926 -38.1909 -37.9497 -37.9477
   -37.8075 -37.8033 -37.6029 -37.5987 -36.6612 -36.6567 -36.4174 -36.4125
   -20.0080 -19.0229 -17.5838 -16.6989 -12.2369 -10.8564 -10.8504 -10.1983
    -9.7369  -9.7303  -9.4680  -9.4608  -9.4578  -9.4559  -8.8727  -8.8706
    -8.8686  -8.8683  -8.6879  -8.6722  -8.4420  -8.4284  -8.2954  -7.9135
    -7.7360  -7.7356  -7.7316  -7.7292  -7.6184  -7.6143  -7.6118  -7.6104
    -7.1396  -7.1337  -7.1304  -7.1172  -6.6149  -6.5974  -6.5900  -6.5862
    -6.3450  -6.2884  -6.2614  -6.2597  -6.2575  -6.2554  -6.1263  -6.1090
    -5.8292  -5.8196  -5.5544  -5.5414  -5.4870  -5.4660  -5.3636  -5.2830
    -5.2630  -5.2488  -5.2212  -5.0848  -5.0301  -5.0086  -4.9996  -4.7168
    -4.7079  -4.3148  -4.1634  -4.0202  -3.9766  -3.9363  -3.4088  -3.3440
    -3.3362  -3.2162  -3.1720  -2.9795  -2.5221  -2.5211  -2.4224  -2.0587
    -1.9957  -1.9893  -1.9222  -1.5127  -1.3114  -1.3033  -1.1824  -1.0649
    -1.0234  -0.8375  -0.8343  -0.7335  -0.6847  -0.6473  -0.5808  -0.4921
    -0.4855  -0.4799  -0.4760  -0.4228  -0.1818  -0.0480  -0.0382  -0.0347
    -0.0295   0.0770   0.1740   0.2513   0.2757   0.7431   0.7515   0.7807
     1.1403   1.2271   1.4485   1.5011   1.5015   1.5073   1.5739   1.6646
     2.0199   2.0531   2.1532   2.1550   2.1618   2.1860   2.1985   2.2093
     2.2187   2.2278   2.3822   2.9817   2.9845   3.6265   3.6416   3.6447
     3.6498   3.6526   3.6783   3.9065   3.9098   3.9342   3.9696   4.1901
     4.2064   4.2145   4.2203   4.6075   4.6216   4.9824   4.9971   4.9982
     5.0074   5.0593   5.0924   5.2044   5.2563   5.3466   5.3816   5.3827
     5.3993   5.5913   5.7800

     the Fermi energy is     5.0119 ev

!    total energy              =   -6190.03609606 Ry
     Harris-Foulkes estimate   =   -6190.03609735 Ry
     estimated scf accuracy    <       0.00000072 Ry

     The total energy is the sum of the following terms:

     one-electron contribution = -131469.08293734 Ry
     hartree contribution      =   65721.14154127 Ry
     xc contribution           =    -734.51746811 Ry
     ewald contribution        =   60292.49557912 Ry
     smearing contrib. (-TS)   =      -0.07281099 Ry

     convergence has been achieved in  25 iterations

     Forces acting on atoms (Ry/au):


     negative rho (up, down):  1.960E-03 0.000E+00
     atom    1 type  1   force =     0.00253820   -0.00053609   -0.63440411
     atom    2 type  1   force =    -0.00186535    0.00294060    0.63548879
     atom    3 type  1   force =     0.00106995    0.00046940   -0.62990992
     atom    4 type  1   force =     0.00145701   -0.00103666    0.62451876
     atom    5 type  1   force =     0.00724991    0.00510602   -0.63902232
     atom    6 type  1   force =    -0.00687311   -0.00427219    0.63625039
     atom    7 type  1   force =    -0.00168949    0.00089914   -0.63260437
     atom    8 type  1   force =     0.00311940   -0.00022369    0.62797834
     atom    9 type  1   force =    -0.00185459    0.00085383   -0.63407414
     atom   10 type  1   force =     0.00128000    0.00135436    0.62653466
     atom   11 type  1   force =     0.00040844   -0.00451639   -0.63536940
     atom   12 type  1   force =    -0.00109897    0.00169244    0.62780936
     atom   13 type  1   force =    -0.01091267   -0.00338704   -0.62725008
     atom   14 type  1   force =     0.01148675   -0.00505970    0.55742854
     atom   15 type  1   force =    -0.00348936   -0.00227181   -0.63936643
     atom   16 type  1   force =     0.00279317    0.00536244    0.62612229
     atom   17 type  1   force =    -0.00009324   -0.00316095   -0.63512311
     atom   18 type  1   force =     0.00284549    0.00046588    0.63599630
     atom   19 type  1   force =     0.00020167   -0.00009145   -0.62804666
     atom   20 type  1   force =     0.00194621   -0.00046501    0.63240118
     atom   21 type  1   force =     0.00533556   -0.00333712   -0.63478544
     atom   22 type  1   force =    -0.00102523    0.00107304    0.62919134
     atom   23 type  1   force =    -0.00065317    0.00952452   -0.62703264
     atom   24 type  1   force =    -0.00018919    0.00006702    0.62560063
     atom   25 type  1   force =    -0.00100943    0.00005214   -0.62950460
     atom   26 type  1   force =    -0.00171063   -0.00010333    0.62698258
     atom   27 type  1   force =    -0.00220070    0.00062297   -0.64236333
     atom   28 type  1   force =    -0.00031304   -0.00177158    0.63332180
     atom   29 type  1   force =    -0.00122153   -0.00005247   -0.63022115
     atom   30 type  1   force =    -0.00096367   -0.00211598    0.62481502
     atom   31 type  1   force =     0.00424311    0.00100071   -0.63325140
     atom   32 type  1   force =    -0.00467150   -0.00088800    0.63359318
     atom   33 type  2   force =     0.02199716    0.00481180    0.05753215
     atom   34 type  2   force =     0.00067935    0.02116419   -0.01641203
     atom   35 type  2   force =     0.00677323    0.00044153   -0.01658130
     atom   36 type  2   force =     0.00025689    0.00364052   -0.00373475
     atom   37 type  3   force =    -0.00435826   -0.00730124    0.01951829
     atom   38 type  3   force =     0.00441890   -0.01244877    0.01044808
     atom   39 type  3   force =     0.00324141    0.00045871    0.04549582
     atom   40 type  3   force =     0.00138114    0.00233650    0.01445924
     atom   41 type  3   force =     0.00093393   -0.00576520   -0.00580711
     atom   42 type  4   force =    -0.00090863    0.00286426   -0.00431639
     atom   43 type  4   force =     0.00151367   -0.00200857   -0.00504635
     atom   44 type  4   force =    -0.00001520   -0.00573653   -0.00608827
     atom   45 type  4   force =     0.00065466    0.00619305    0.00556821
     atom   46 type  4   force =    -0.03941267    0.00713137    0.02592591
     atom   47 type  4   force =    -0.00129556   -0.01397667    0.00733443

     Total force =     3.562092     Total SCF correction =     0.005341
 !ASE

     Writing output data file calc.save
     Check: negative starting charge=   -0.002245
     NEW-OLD atomic charge density approx. for the potential
     Check: negative starting charge=   -0.002131

     negative rho (up, down):  3.162E-03 0.000E+00

     total cpu time spent up to now is     2400.2 secs

     per-process dynamical memory:   236.0 Mb

     Self-consistent Calculation

     iteration #  1     ecut=    40.42 Ry     beta=0.20
     Davidson diagonalization with overlap
     c_bands:  4 eigenvalues not converged
     ethr =  2.01E-10,  avg # of iterations = 38.8

     negative rho (up, down):  3.137E-03 0.000E+00

     total cpu time spent up to now is     2604.2 secs

     total energy              =   -6193.16997488 Ry
     Harris-Foulkes estimate   =   -6193.32901857 Ry
     estimated scf accuracy    <       2.52801692 Ry

     iteration #  2     ecut=    40.42 Ry     beta=0.20
     Davidson diagonalization with overlap
     ethr =  4.50E-04,  avg # of iterations =  1.0

     negative rho (up, down):  9.825E-03 0.000E+00

     total cpu time spent up to now is     2629.7 secs

     total energy              =   -6192.63543063 Ry
     Harris-Foulkes estimate   =   -6193.18043317 Ry
     estimated scf accuracy    <       1.73441099 Ry

     iteration #  3     ecut=    40.42 Ry     beta=0.20
     Davidson diagonalization with overlap
     ethr =  3.09E-04,  avg # of iterations =  2.8

     negative rho (up, down):  9.372E-03 0.000E+00

     total cpu time spent up to now is     2662.5 secs

     total energy              =   -6192.88572187 Ry
     Harris-Foulkes estimate   =   -6192.88444581 Ry
     estimated scf accuracy    <       0.08856729 Ry

     iteration #  4     ecut=    40.42 Ry     beta=0.20
     Davidson diagonalization with overlap
     ethr =  1.58E-05,  avg # of iterations = 10.5

     negative rho (up, down):  8.550E-03 0.000E+00

     total cpu time spent up to now is     2700.7 secs

     total energy              =   -6192.87809394 Ry
     Harris-Foulkes estimate   =   -6192.88859280 Ry
     estimated scf accuracy    <       0.10871418 Ry

     iteration #  5     ecut=    40.42 Ry     beta=0.20
     Davidson diagonalization with overlap
     ethr =  1.58E-05,  avg # of iterations =  2.0

     negative rho (up, down):  9.016E-03 0.000E+00

     total cpu time spent up to now is     2727.6 secs

     total energy              =   -6192.87663488 Ry
     Harris-Foulkes estimate   =   -6192.88154545 Ry
     estimated scf accuracy    <       0.04112625 Ry

     iteration #  6     ecut=    40.42 Ry     beta=0.20
     Davidson diagonalization with overlap
     ethr =  7.32E-06,  avg # of iterations =  6.2

     negative rho (up, down):  8.458E-03 0.000E+00

     total cpu time spent up to now is     2764.3 secs

     total energy              =   -6192.87969502 Ry
     Harris-Foulkes estimate   =   -6192.88175667 Ry
     estimated scf accuracy    <       0.02927722 Ry

     iteration #  7     ecut=    40.42 Ry     beta=0.20
     Davidson diagonalization with overlap
     ethr =  5.21E-06,  avg # of iterations =  1.2

     negative rho (up, down):  6.695E-03 0.000E+00

     total cpu time spent up to now is     2789.9 secs

     total energy              =   -6192.87736955 Ry
     Harris-Foulkes estimate   =   -6192.88026287 Ry
     estimated scf accuracy    <       0.01235820 Ry

     iteration #  8     ecut=    40.42 Ry     beta=0.20
     Davidson diagonalization with overlap
     ethr =  2.20E-06,  avg # of iterations =  5.2

     negative rho (up, down):  6.571E-03 0.000E+00

     total cpu time spent up to now is     2829.8 secs

     total energy              =   -6192.88095256 Ry
     Harris-Foulkes estimate   =   -6192.88144142 Ry
     estimated scf accuracy    <       0.04849489 Ry

     iteration #  9     ecut=    40.42 Ry     beta=0.20
     Davidson diagonalization with overlap
     ethr =  2.20E-06,  avg # of iterations =  1.0

     negative rho (up, down):  5.783E-03 0.000E+00

     total cpu time spent up to now is     2854.8 secs

     total energy              =   -6192.87833454 Ry
     Harris-Foulkes estimate   =   -6192.88102244 Ry
     estimated scf accuracy    <       0.04240376 Ry

     iteration # 10     ecut=    40.42 Ry     beta=0.20
     Davidson diagonalization with overlap
     ethr =  2.20E-06,  avg # of iterations =  4.5

     negative rho (up, down):  5.543E-03 0.000E+00

     total cpu time spent up to now is     2886.9 secs

     total energy              =   -6192.87852417 Ry
     Harris-Foulkes estimate   =   -6192.87922303 Ry
     estimated scf accuracy    <       0.00729207 Ry

     iteration # 11     ecut=    40.42 Ry     beta=0.20
     Davidson diagonalization with overlap
     ethr =  1.30E-06,  avg # of iterations =  2.0

     negative rho (up, down):  4.944E-03 0.000E+00

     total cpu time spent up to now is     2913.8 secs

     total energy              =   -6192.87772888 Ry
     Harris-Foulkes estimate   =   -6192.87879761 Ry
     estimated scf accuracy    <       0.00553096 Ry

     iteration # 12     ecut=    40.42 Ry     beta=0.20
     Davidson diagonalization with overlap
     ethr =  9.84E-07,  avg # of iterations =  5.0

     negative rho (up, down):  4.920E-03 0.000E+00

     total cpu time spent up to now is     2948.5 secs

     total energy              =   -6192.87831162 Ry
     Harris-Foulkes estimate   =   -6192.87830204 Ry
     estimated scf accuracy    <       0.00256249 Ry

     iteration # 13     ecut=    40.42 Ry     beta=0.20
     Davidson diagonalization with overlap
     ethr =  4.56E-07,  avg # of iterations =  1.0

     negative rho (up, down):  5.344E-03 0.000E+00

     total cpu time spent up to now is     2975.6 secs

     total energy              =   -6192.87800107 Ry
     Harris-Foulkes estimate   =   -6192.87832625 Ry
     estimated scf accuracy    <       0.00259278 Ry

     iteration # 14     ecut=    40.42 Ry     beta=0.20
     Davidson diagonalization with overlap
     ethr =  4.56E-07,  avg # of iterations =  2.5

     negative rho (up, down):  5.369E-03 0.000E+00

     total cpu time spent up to now is     3004.8 secs

     total energy              =   -6192.87790994 Ry
     Harris-Foulkes estimate   =   -6192.87814998 Ry
     estimated scf accuracy    <       0.00293176 Ry

     iteration # 15     ecut=    40.42 Ry     beta=0.20
     Davidson diagonalization with overlap
     ethr =  4.56E-07,  avg # of iterations =  4.0

     negative rho (up, down):  5.271E-03 0.000E+00

     total cpu time spent up to now is     3034.0 secs

     total energy              =   -6192.87783633 Ry
     Harris-Foulkes estimate   =   -6192.87800389 Ry
     estimated scf accuracy    <       0.00105955 Ry

     iteration # 16     ecut=    40.42 Ry     beta=0.20
     Davidson diagonalization with overlap
     ethr =  1.89E-07,  avg # of iterations =  4.8

     negative rho (up, down):  5.558E-03 0.000E+00

     total cpu time spent up to now is     3069.2 secs

     total energy              =   -6192.87750159 Ry
     Harris-Foulkes estimate   =   -6192.87793827 Ry
     estimated scf accuracy    <       0.00159487 Ry

     iteration # 17     ecut=    40.42 Ry     beta=0.20
     Davidson diagonalization with overlap
     ethr =  1.89E-07,  avg # of iterations =  5.0

     negative rho (up, down):  5.255E-03 0.000E+00

     total cpu time spent up to now is     3106.6 secs

     total energy              =   -6192.87744009 Ry
     Harris-Foulkes estimate   =   -6192.87773792 Ry
     estimated scf accuracy    <       0.00177421 Ry

     iteration # 18     ecut=    40.42 Ry     beta=0.20
     Davidson diagonalization with overlap
     ethr =  1.89E-07,  avg # of iterations =  4.2

     negative rho (up, down):  5.043E-03 0.000E+00

     total cpu time spent up to now is     3141.4 secs

     total energy              =   -6192.87757287 Ry
     Harris-Foulkes estimate   =   -6192.87764849 Ry
     estimated scf accuracy    <       0.00106010 Ry

     iteration # 19     ecut=    40.42 Ry     beta=0.20
     Davidson diagonalization with overlap
     ethr =  1.89E-07,  avg # of iterations =  1.0

     negative rho (up, down):  4.739E-03 0.000E+00

[...]
   -47.9212 -47.7250 -47.6668 -47.6667 -47.1271 -46.8474 -46.8130 -46.8129
   -46.7345 -46.7345 -46.4641 -46.4641 -46.1993 -46.1993 -44.7779 -44.7779
   -44.5442 -44.5441 -44.3852 -44.3852 -44.2923 -44.2922 -44.0193 -43.7728
   -43.7727 -43.1670 -43.0840 -43.0839 -43.0707 -42.8283 -42.8282 -42.4689
   -42.4689 -42.2652 -42.2652 -42.2405 -42.2405 -41.8270 -41.8269 -41.7462
   -41.7462 -41.6582 -41.6581 -41.6245 -40.9669 -40.8366 -40.8141 -40.8141
   -40.2789 -40.2113 -40.2111 -40.1648 -40.1032 -40.1031 -40.0071 -40.0071
   -39.9358 -39.9358 -39.7950 -39.7949 -39.6157 -39.5465 -39.5446 -39.5445
   -39.5039 -39.4995 -39.4994 -39.4969 -39.4722 -39.4721 -38.9444 -38.9444
   -38.8693 -38.7227 -38.4434 -38.4433 -38.4306 -37.9142 -37.6437 -37.2293
   -19.2526 -18.9200 -16.9469 -16.6082 -15.2965 -14.7657 -14.7657 -13.6353
   -12.3852 -12.3851 -12.3595 -12.3595 -12.3544 -12.0085 -11.6124 -11.6123
   -11.4777 -11.4776 -10.9788 -10.9787 -10.7846 -10.7721 -10.7395 -10.4394
   -10.4393 -10.3425 -10.3425  -9.9083  -9.9081  -9.8657  -9.7298  -9.6800
    -9.6799  -9.5713  -9.5711  -8.6062  -8.6061  -8.2840  -8.1523  -8.1521
    -7.9581  -7.9317  -7.2945  -7.2944  -7.2200  -7.2199  -7.0094  -7.0093
    -7.0031  -7.0030  -6.8441  -6.7736  -6.6050  -6.1388  -6.1386  -5.6953
    -5.5884  -5.5235  -5.5234  -5.5051  -5.5048  -5.4416  -5.4415  -5.0870
    -5.0427  -4.9732  -4.9731  -4.7679  -4.6349  -4.6208  -4.6206  -4.1135
    -4.1135  -4.0485  -4.0482  -3.9016  -3.8015  -3.7647  -3.6338  -3.4587
    -3.4586  -3.4016  -3.0961  -2.8363  -2.8363  -2.8330  -2.8328  -2.6570
    -2.5890  -2.5886  -2.1970  -2.1434  -1.7489  -1.7183  -1.6102  -1.6098
    -1.5022  -1.4979  -1.4565  -1.3654  -1.3653  -1.3031  -1.2807  -1.2490
    -1.2472  -1.0998  -0.8614  -0.3536  -0.2617  -0.2616   0.1191   0.1197
     0.1779   0.1780   0.3318   0.4839   0.4907   0.5841   0.6558   0.6559
     0.6730   0.7672   0.8370   1.4454   1.4475   1.6499   1.6530   1.6557
     1.7838   1.7839   1.9897   2.2259   2.4185   2.4236   2.6000   2.8318
     2.8880   2.9419   2.9644   2.9646   2.9888   2.9891   2.9992   3.0021
     3.3482   3.3487   3.3608   3.3621   3.6997   3.7957   3.9772   3.9784
     4.0808   4.0810   4.1560   4.5611   4.5612   4.6900   4.6911   4.8995
     4.9006   5.0784   5.1003

          k = 0.0653-0.0377 0.0000 ( 43692 PWs)   bands (ev):

   -76.3886 -76.3877 -75.4089 -75.4088 -73.7177 -73.7177 -73.7176 -73.7175
   -73.3293 -73.3285 -73.0743 -73.0740 -72.5711 -72.5710 -72.0532 -72.0525
   -72.0521 -72.0514 -71.4358 -71.4358 -71.4357 -71.4356 -71.1496 -71.1495
   -71.1196 -71.1193 -70.7305 -70.7297 -70.7294 -70.7287 -70.5944 -70.5943
   -50.2363 -50.2360 -50.2357 -50.2353 -49.4985 -49.4978 -49.3882 -49.3881
   -48.9619 -48.9617 -48.9613 -48.9611 -48.3006 -48.3005 -48.1186 -48.1179
   -47.6039 -47.6031 -47.5840 -47.5840 -47.5839 -47.5839 -46.8860 -46.8859
   -46.8859 -46.8858 -46.8765 -46.8764 -46.6469 -46.6468 -44.6329 -44.6328
   -44.2382 -44.2382 -44.2381 -44.2381 -43.8024 -43.8023 -43.7145 -43.7142
   -43.5775 -43.5772 -43.5768 -43.5765 -42.8092 -42.8088 -42.8085 -42.8082
   -42.1966 -42.1966 -41.7582 -41.7582 -41.7582 -41.7581 -41.3194 -41.3193
   -41.3192 -41.3184 -41.1627 -41.1626 -40.9006 -40.9006 -40.9000 -40.8999
   -40.3605 -40.3604 -40.3153 -40.3153 -40.3152 -40.3152 -39.9385 -39.9378
   -39.9375 -39.9369 -39.8409 -39.8406 -39.7444 -39.7444 -39.4961 -39.4960
   -39.4345 -39.4342 -39.3634 -39.3634 -39.3633 -39.3632 -39.2545 -39.2537
   -38.9892 -38.9886 -38.9071 -38.9067 -38.6754 -38.6753 -37.4993 -37.4990
   -19.2526 -18.9200 -16.9469 -16.6082 -14.6547 -14.6539 -12.8610 -12.8606
   -12.8603 -12.8598 -12.0094 -11.8795 -11.8794 -11.7852 -11.7847 -11.7010
   -11.7009 -11.7004 -11.7002 -11.3404 -11.3403 -11.3403 -11.3403 -10.0431
   -10.0430 -10.0429 -10.0428  -9.7730  -9.7726  -9.7274  -9.6139  -9.6134
    -9.1865  -9.1865  -8.9171  -8.9170  -8.4264  -8.4262  -8.4258  -8.4256
    -7.9344  -7.5002  -7.5001  -6.9603  -6.9599  -6.7726  -6.7661  -6.7660
    -6.7660  -6.7659  -6.7236  -6.7232  -6.7228  -6.7223  -6.6027  -6.6026
    -5.9721  -5.9712  -5.9077  -5.9070  -5.9026  -5.9025  -5.9024  -5.9023
    -5.3399  -5.3398  -5.0412  -4.7633  -4.7633  -4.6146  -4.6145  -4.4943
    -4.4926  -3.8596  -3.8592  -3.8590  -3.8585  -3.7994  -3.7638  -3.7630
    -3.6905  -3.6884  -3.6273  -3.3915  -3.0981  -2.9363  -2.9362  -2.7171
    -2.7163  -2.6498  -2.2014  -2.1589  -2.1587  -2.1586  -2.1580  -1.9674
    -1.9668  -1.7889  -1.7881  -1.7862  -1.4515  -1.2348  -1.0873  -1.0873
    -1.0872  -1.0872  -0.9229  -0.9227  -0.8621  -0.4456  -0.4365  -0.3392
     0.2824   0.2895   0.6387   0.6809   0.6814   0.8429   1.2629   1.2633
     1.2646   1.2672   1.6257   1.6257   1.6363   1.6446   1.6485   1.9911
     2.0146   2.0147   2.2215   2.3325   2.3382   2.6175   2.6429   2.7048
     2.7054   2.7071   2.7075   3.0201   3.0205   3.0213   3.0234   3.0305
     3.0308   3.1631   3.1635   4.4333   4.4351   4.5502   4.5502   4.5519
     4.5527   4.7468   4.7819   4.8830   4.8992   5.3310   5.3311   5.3324
     5.3326   5.4930   5.4934

          k =-0.0653-0.0377 0.0000 ( 43692 PWs)   bands (ev):

   -76.3884 -76.3879 -75.4089 -75.4088 -73.7177 -73.7177 -73.7176 -73.7175
   -73.3291 -73.3286 -73.0743 -73.0741 -72.5711 -72.5711 -72.0528 -72.0524
   -72.0523 -72.0518 -71.4358 -71.4358 -71.4357 -71.4356 -71.1496 -71.1495
   -71.1195 -71.1193 -70.7301 -70.7296 -70.7296 -70.7290 -70.5944 -70.5943
   -50.2361 -50.2359 -50.2357 -50.2355 -49.4984 -49.4979 -49.3882 -49.3881
   -48.9618 -48.9616 -48.9614 -48.9613 -48.3006 -48.3005 -48.1184 -48.1181
   -47.6038 -47.6033 -47.5840 -47.5840 -47.5839 -47.5839 -46.8860 -46.8859
   -46.8859 -46.8858 -46.8765 -46.8764 -46.6469 -46.6468 -44.6329 -44.6328
   -44.2383 -44.2382 -44.2381 -44.2380 -43.8024 -43.8023 -43.7145 -43.7143
   -43.5773 -43.5771 -43.5769 -43.5767 -42.8089 -42.8088 -42.8086 -42.8083
   -42.1966 -42.1966 -41.7582 -41.7582 -41.7582 -41.7581 -41.3194 -41.3193
   -41.3190 -41.3185 -41.1626 -41.1626 -40.9005 -40.9004 -40.9001 -40.9001
   -40.3605 -40.3604 -40.3153 -40.3153 -40.3152 -40.3152 -39.9381 -39.9378
   -39.9377 -39.9372 -39.8408 -39.8406 -39.7444 -39.7444 -39.4961 -39.4959
   -39.4345 -39.4343 -39.3634 -39.3633 -39.3633 -39.3632 -39.2543 -39.2538
   -38.9891 -38.9888 -38.9070 -38.9068 -38.6754 -38.6753 -37.4992 -37.4990
   -19.2526 -18.9200 -16.9469 -16.6082 -14.6545 -14.6541 -12.8608 -12.8605
   -12.8603 -12.8601 -12.0090 -11.8795 -11.8794 -11.7851 -11.7848 -11.7009
   -11.7008 -11.7005 -11.7004 -11.3404 -11.3404 -11.3403 -11.3402 -10.0431
   -10.0430 -10.0429 -10.0428  -9.7729  -9.7727  -9.7298  -9.6139  -9.6135
    -9.1866  -9.1863  -8.9171  -8.9170  -8.4262  -8.4262  -8.4259  -8.4258
    -7.9288  -7.5003  -7.5001  -6.9607  -6.9596  -6.7729  -6.7660  -6.7660
    -6.7660  -6.7659  -6.7234  -6.7230  -6.7228  -6.7224  -6.6028  -6.6025
    -5.9720  -5.9714  -5.9075  -5.9071  -5.9027  -5.9026  -5.9024  -5.9022
    -5.3399  -5.3398  -5.0488  -4.7633  -4.7633  -4.6147  -4.6145  -4.4942
    -4.4926  -3.8594  -3.8591  -3.8590  -3.8587  -3.7980  -3.7636  -3.7631
    -3.6896  -3.6869  -3.6301  -3.4022  -3.0986  -2.9363  -2.9362  -2.7169
    -2.7165  -2.6564  -2.2058  -2.1590  -2.1587  -2.1585  -2.1579  -1.9676
    -1.9671  -1.7888  -1.7883  -1.7421  -1.4582  -1.2333  -1.0873  -1.0872
    -1.0872  -1.0872  -0.9230  -0.9227  -0.8607  -0.4456  -0.4376  -0.3522
     0.2745   0.2953   0.6459   0.6809   0.6811   0.8414   1.2626   1.2634
     1.2647   1.2678   1.6257   1.6258   1.6369   1.6462   1.6533   1.9804
     2.0146   2.0148   2.2266   2.3316   2.3430   2.6208   2.6367   2.7052
     2.7056   2.7068   2.7072   3.0197   3.0207   3.0215   3.0236   3.0304
     3.0307   3.1632   3.1635   4.4336   4.4349   4.5500   4.5511   4.5516
     4.5521   4.7500   4.7724   4.8786   4.9108   5.3311   5.3316   5.3319
     5.3325   5.4925   5.4935

          k =-0.0327 0.0566 0.0000 ( 43655 PWs)   bands (ev):

   -76.5160 -76.0119 -76.0114 -74.6214 -74.6213 -73.8042 -73.4663 -73.4658
   -73.4316 -73.0313 -73.0308 -72.8053 -72.8051 -72.5837 -72.5836 -72.0088
   -72.0086 -71.7292 -71.5495 -71.5492 -71.4817 -71.3069 -71.3064 -70.9729
   -70.9728 -70.9676 -70.9122 -70.9121 -70.6860 -70.6276 -70.6145 -70.6143
   -50.6022 -50.0631 -50.0631 -50.0026 -50.0023 -49.3228 -49.1787 -49.1783
   -48.8088 -48.8087 -48.7049 -48.6981 -48.6981 -48.6119 -48.6119 -48.1351
   -48.0121 -48.0118 -47.7071 -47.4170 -47.4170 -47.4050 -47.3072 -47.3067
   -46.9049 -46.8118 -46.5322 -46.5320 -45.6463 -45.6462 -45.3810 -45.0943
   -45.0943 -44.4955 -43.9762 -43.9759 -43.8731 -43.8730 -43.6969 -43.6969
   -43.5807 -43.3843 -43.3842 -43.3587 -43.3587 -42.7672 -42.5204 -42.5202
   -42.2535 -42.2535 -41.9552 -41.9552 -41.5956 -41.5196 -41.5196 -41.4774
   -41.4771 -41.1237 -40.9213 -40.8720 -40.7587 -40.7370 -40.7370 -40.7352
   -40.7348 -40.5192 -40.4895 -40.4895 -40.1516 -40.1236 -40.1234 -40.0144
   -40.0144 -39.7812 -39.7812 -39.7460 -39.7456 -39.6913 -39.6912 -39.6044
   -39.6042 -39.4516 -39.4513 -39.3548 -39.3545 -39.3266 -39.2274 -39.1732
   -39.1732 -39.1084 -39.1082 -39.0584 -38.2948 -37.9352 -37.9352 -37.4919
   -19.2526 -18.9200 -16.9469 -16.6082 -14.3368 -14.3368 -13.5270 -13.5269
   -13.1100 -12.2129 -12.2124 -12.1032 -12.1029 -12.0095 -11.9438 -11.9437
   -11.8933 -11.7828 -11.0973 -11.0971 -11.0719 -11.0714 -10.2757 -10.2757
    -9.7552  -9.7552  -9.7277  -9.7122  -9.7121  -9.6901  -9.5764  -9.5761
    -9.4287  -9.3481  -9.1175  -9.1173  -8.6290  -8.6154  -8.6153  -7.9316
    -7.8123  -7.8119  -7.7481  -7.7478  -7.3991  -7.1711  -7.0262  -7.0260
    -6.7798  -6.7729  -6.7204  -6.5058  -6.5057  -6.4696  -6.4603  -6.4600
    -5.6270  -5.6267  -5.6134  -5.6133  -5.5787  -5.5784  -5.4360  -5.3529
    -5.3529  -5.3285  -5.2531  -5.2527  -5.0961  -5.0960  -5.0469  -5.0185
    -4.3639  -4.3627  -4.2373  -4.1040  -3.8021  -3.6333  -3.5125  -3.5123
    -3.3938  -3.2112  -3.0974  -2.9605  -2.9587  -2.9537  -2.9358  -2.9356
    -2.8111  -2.6485  -2.4862  -2.4862  -2.1974  -2.1559  -2.1536  -2.0280
    -1.9952  -1.8908  -1.8904  -1.8022  -1.7989  -1.7778  -1.4504  -1.2331
    -0.8621  -0.4374  -0.4362  -0.4081  -0.3396  -0.1847  -0.1044  -0.1042
     0.0248   0.1248   0.3700   0.6225   0.7356   0.7429   0.8464   1.0678
     1.0706   1.1258   1.1265   1.5400   1.5448   1.6527   1.9905   2.0282
     2.0284   2.0770   2.0872   2.2258   2.2828   2.3805   2.3851   2.3868
     2.5029   2.5167   2.5181   2.8101   2.8104   3.1579   3.4357   3.4360
     3.7070   3.9069   3.9265   4.3854   4.3858   4.6279   4.6284   4.6432
     4.6434   4.6542   4.9661   4.9802   5.0209   5.0600   5.0603   5.3393
     5.5511   5.6162   5.6262

          k = 0.0653 0.0000 0.0000 ( 43655 PWs)   bands (ev):

   -76.5160 -76.0118 -76.0115 -74.6214 -74.6213 -73.8042 -73.4662 -73.4659
   -73.4316 -73.0312 -73.0309 -72.8053 -72.8052 -72.5837 -72.5836 -72.0088
   -72.0086 -71.7292 -71.5494 -71.5493 -71.4817 -71.3068 -71.3065 -70.9729
   -70.9728 -70.9676 -70.9122 -70.9121 -70.6860 -70.6276 -70.6145 -70.6143
   -50.6022 -50.0631 -50.0631 -50.0025 -50.0024 -49.3228 -49.1786 -49.1784
   -48.8087 -48.8087 -48.7049 -48.6982 -48.6981 -48.6119 -48.6119 -48.1351
   -48.0120 -48.0118 -47.7071 -47.4170 -47.4170 -47.4050 -47.3071 -47.3069
   -46.9049 -46.8118 -46.5322 -46.5320 -45.6463 -45.6462 -45.3810 -45.0943
   -45.0943 -44.4955 -43.9761 -43.9759 -43.8731 -43.8730 -43.6969 -43.6969
   -43.5807 -43.3843 -43.3842 -43.3587 -43.3587 -42.7672 -42.5204 -42.5203
   -42.2535 -42.2535 -41.9552 -41.9552 -41.5956 -41.5196 -41.5196 -41.4773
   -41.4772 -41.1237 -40.9213 -40.8720 -40.7587 -40.7371 -40.7370 -40.7351
   -40.7349 -40.5192 -40.4895 -40.4895 -40.1516 -40.1236 -40.1235 -40.0144
   -40.0144 -39.7812 -39.7812 -39.7459 -39.7457 -39.6913 -39.6912 -39.6043
   -39.6042 -39.4516 -39.4514 -39.3547 -39.3546 -39.3266 -39.2274 -39.1732
   -39.1732 -39.1084 -39.1083 -39.0584 -38.2948 -37.9352 -37.9352 -37.4919
   -19.2526 -18.9200 -16.9469 -16.6082 -14.3368 -14.3368 -13.5270 -13.5269
   -13.1100 -12.2128 -12.2125 -12.1031 -12.1030 -12.0092 -11.9438 -11.9437
   -11.8933 -11.7829 -11.0972 -11.0972 -11.0717 -11.0716 -10.2757 -10.2757
    -9.7552  -9.7552  -9.7287  -9.7122  -9.7121  -9.6901  -9.5763  -9.5762
    -9.4287  -9.3481  -9.1174  -9.1174  -8.6290  -8.6154  -8.6153  -7.9316
    -7.8122  -7.8120  -7.7480  -7.7479  -7.3991  -7.1711  -7.0261  -7.0260
    -6.7799  -6.7724  -6.7204  -6.5058  -6.5057  -6.4696  -6.4602  -6.4601
    -5.6269  -5.6268  -5.6134  -5.6133  -5.5786  -5.5785  -5.4360  -5.3529
    -5.3529  -5.3285  -5.2530  -5.2528  -5.0961  -5.0959  -5.0448  -5.0185
    -4.3635  -4.3630  -4.2373  -4.1040  -3.7980  -3.6315  -3.5125  -3.5123
    -3.3980  -3.2112  -3.0991  -2.9601  -2.9591  -2.9537  -2.9358  -2.9357
    -2.8111  -2.6527  -2.4862  -2.4862  -2.2042  -2.1554  -2.1541  -2.0280
    -1.9951  -1.8907  -1.8905  -1.8012  -1.7987  -1.7627  -1.4544  -1.2320
    -0.8612  -0.4372  -0.4364  -0.4081  -0.3467  -0.1844  -0.1043  -0.1043
     0.0248   0.1250   0.3700   0.6239   0.7352   0.7434   0.8420   1.0681
     1.0703   1.1261   1.1262   1.5379   1.5463   1.6513   1.9869   2.0283
     2.0283   2.0780   2.0862   2.2259   2.2828   2.3818   2.3845   2.3861
     2.5028   2.5169   2.5178   2.8099   2.8106   3.1579   3.4358   3.4359
     3.7066   3.9091   3.9244   4.3856   4.3856   4.6280   4.6283   4.6432
     4.6434   4.6542   4.9687   4.9772   5.0212   5.0601   5.0602   5.3393
     5.5512   5.6183   5.6245

     the Fermi energy is     4.5257 ev

!    total energy              =   -6175.85323344 Ry
     Harris-Foulkes estimate   =   -6175.85323247 Ry
     estimated scf accuracy    <       0.00000036 Ry

     The total energy is the sum of the following terms:

     one-electron contribution = -134421.88047283 Ry
     hartree contribution      =   67173.29984695 Ry
     xc contribution           =    -745.50023624 Ry
     ewald contribution        =   61818.27928703 Ry
     smearing contrib. (-TS)   =      -0.05165834 Ry

     convergence has been achieved in  11 iterations

     Forces acting on atoms (Ry/au):


     negative rho (up, down):  1.944E-03 0.000E+00
     atom    1 type  1   force =     0.00012924   -0.00001649   -1.98036693
     atom    2 type  1   force =    -0.00010310   -0.00004729    1.98006744
     atom    3 type  1   force =    -0.00010401    0.00008552   -1.98061349
     atom    4 type  1   force =     0.00013687   -0.00005869    1.98042366
     atom    5 type  1   force =    -0.00007061   -0.00003642   -1.98052129
     atom    6 type  1   force =     0.00032532   -0.00021638    1.98016513
     atom    7 type  1   force =     0.00028425    0.00007753   -1.98031826
     atom    8 type  1   force =    -0.00046423    0.00027033    1.98034875
     atom    9 type  1   force =     0.00002347   -0.00017426   -1.98007649
     atom   10 type  1   force =    -0.00019437    0.00014256    1.98037440
     atom   11 type  1   force =     0.00002556   -0.00009571   -1.98036778
     atom   12 type  1   force =    -0.00006874    0.00008470    1.98021203
     atom   13 type  1   force =    -0.00056374   -0.00013191   -1.98035486
     atom   14 type  1   force =     0.00024141    0.00057185    1.98035219
     atom   15 type  1   force =    -0.00027381   -0.00008116   -1.98035608
     atom   16 type  1   force =     0.00087704   -0.00025066    1.98010335
     atom   17 type  1   force =    -0.00007090    0.00022198   -1.98036257
     atom   18 type  1   force =     0.00015767   -0.00017854    1.98035316
     atom   19 type  1   force =     0.00009827   -0.00014690   -1.98030106
     atom   20 type  1   force =    -0.00018447   -0.00002107    1.98041167
     atom   21 type  1   force =     0.00029867   -0.00023770   -1.98033256
     atom   22 type  1   force =    -0.00040458    0.00022497    1.98012415
     atom   23 type  1   force =    -0.00027078    0.00020315   -1.98053367
     atom   24 type  1   force =    -0.00029752   -0.00042777    1.98050355
     atom   25 type  1   force =    -0.00007832    0.00043306   -1.98053273
     atom   26 type  1   force =     0.00010189   -0.00019896    1.98053447
     atom   27 type  1   force =    -0.00000409    0.00012107   -1.98065647
     atom   28 type  1   force =     0.00007902   -0.00017322    1.98062181
     atom   29 type  1   force =     0.00034996   -0.00016637   -1.98042207
     atom   30 type  1   force =    -0.00018553    0.00019946    1.98056285
     atom   31 type  1   force =     0.00027950   -0.00008065   -1.98051589
     atom   32 type  1   force =    -0.00013394    0.00011741    1.98036462
     atom   33 type  2   force =    -0.00058403   -0.00014582   -0.00008591
     atom   34 type  2   force =     0.00038921    0.00139364    0.00016565
     atom   35 type  2   force =     0.00120572   -0.00004205    0.00072342
     atom   36 type  2   force =    -0.00002187    0.00073050   -0.00068296
     atom   37 type  3   force =    -0.00032225    0.00086073   -0.00029023
     atom   38 type  3   force =    -0.00010909    0.00030984    0.00032670
     atom   39 type  3   force =    -0.00022275    0.00033515   -0.00012877
     atom   40 type  3   force =    -0.00005958   -0.00125354    0.00131867
     atom   41 type  3   force =    -0.00097388   -0.00085677    0.00128157
     atom   42 type  4   force =    -0.00037500    0.00019690   -0.00088775
     atom   43 type  4   force =    -0.00013897    0.00007517   -0.00046151
     atom   44 type  4   force =     0.00070217   -0.00036459    0.00098102
     atom   45 type  4   force =    -0.00001410   -0.00017000   -0.00115331
     atom   46 type  4   force =     0.00123534   -0.00065941   -0.00028403
     atom   47 type  4   force =    -0.00064636   -0.00042323    0.00028639

     Total force =    11.202721     Total SCF correction =     0.004830
 !ASE

     Writing output data file calc.save
 
     init_run     :     23.09s CPU     23.40s WALL (       1 calls)
     electrons    :  60163.87s CPU  60852.32s WALL (      40 calls)
     update_pot   :     92.88s CPU     94.03s WALL (      39 calls)
     forces       :    444.37s CPU    445.61s WALL (      40 calls)

     Called by init_run:
     wfcinit      :     20.03s CPU     20.25s WALL (       1 calls)
     potinit      :      1.08s CPU      1.12s WALL (       1 calls)

     Called by electrons:
     c_bands      :  48382.28s CPU  49020.71s WALL (     827 calls)
     sum_band     :   7950.22s CPU   7971.02s WALL (     827 calls)
     v_of_rho     :    143.49s CPU    159.18s WALL (     867 calls)
     newd         :    750.24s CPU    759.14s WALL (     867 calls)
     mix_rho      :   2957.15s CPU   2959.99s WALL (     827 calls)

     Called by c_bands:
     init_us_2    :    294.35s CPU    294.78s WALL (   16950 calls)
     cegterg      :  46815.76s CPU  47454.74s WALL (    8270 calls)

     Called by *egterg:
     h_psi        :  28114.37s CPU  28148.58s WALL (   34360 calls)
     s_psi        :   2951.61s CPU   2950.12s WALL (   34360 calls)
     g_psi        :     63.98s CPU     64.06s WALL (   26080 calls)
     cdiaghg      :   7094.51s CPU   7090.50s WALL (   33960 calls)

     Called by h_psi:
     add_vuspsi   :   3050.44s CPU   3048.83s WALL (   34360 calls)

     General routines
     calbec       :   4309.66s CPU   4318.57s WALL (   43030 calls)
     fft          :    176.81s CPU    194.19s WALL (   14191 calls)
     ffts         :   1458.26s CPU   1462.48s WALL (  640301 calls)
     fftw         :  21571.25s CPU  21778.70s WALL (13195180 calls)
     interpolate  :     26.66s CPU     27.80s WALL (    1694 calls)
     davcio       :      0.01s CPU      0.61s WALL (      10 calls)
 
     Parallel routines
     fft_scatter  :   5887.74s CPU   5953.90s WALL (13849672 calls)
 
     PWSCF        :    16h52m CPU       17h 4m WALL

 
   This run was terminated on:  11:16:56   7Apr2019            

=------------------------------------------------------------------------------=
   JOB DONE.
=------------------------------------------------------------------------------=
