  python dir          : /gpfs/pace1/project/chbe-medford/medford-share/gits/frozen/ben_espresso_8_24_2017/espresso
  espresso dir        : /nv/hp22/amedford6/medford-shared/builds/espresso/5.1.r11289-pybeef/intel-16.0+mvapich2-2.2+mkl-11.3/espresso-5.1.r11289-pybeef/bin
  pseudo dir          : /gpfs/pace1/project/chbe-medford/medford-share/data/pseudos/SSSP_eff_PBE
  ase-espresso py git : GITVERSION



     Program PWSCF v.5.1rc2 starts on  9Feb2019 at 22: 9:15 

     This program is part of the open-source Quantum ESPRESSO suite
     for quantum simulation of materials; please cite
         "P. Giannozzi et al., J. Phys.:Condens. Matter 21 395502 (2009);
          URL http://www.quantum-espresso.org", 
     in publications or presentations arising from this work. More details at
     http://www.quantum-espresso.org/quote

     Parallel version (MPI), running on    12 processors
     R & G space division:  proc/nbgrp/npool/nimage =      12
     Reading input from pw.inp
     Message from routine read_cards :
     DEPRECATED: no units specified in CELL_PARAMETERS card

     Current dimensions of program PWSCF are:
     Max number of different atomic species (ntypx) = 10
     Max number of k-points (npk) =  40000
     Max angular momentum in pseudopotentials (lmaxx) =  3

     IMPORTANT: XC functional enforced from input :
     Exchange-correlation      = PBE ( 1  4  3  4 0)
     Any further DFT definition will be discarded
     Please, verify this is what you really want


     Subspace diagonalization in iterative solution of the eigenvalue problem:
     a serial algorithm will be used

 
     Parallelization info
     --------------------
     sticks:   dense  smooth     PW     G-vecs:    dense   smooth      PW
     Min         706     346     91               153274    52380    7131
     Max         707     347     92               153289    52411    7140
     Sum        8479    4153   1099              1839367   628667   85635
 


     bravais-lattice index     =            0
     lattice parameter (alat)  =       1.8897  a.u.
     unit-cell volume          =   18112.9477 (a.u.)^3
     number of atoms/cell      =           48
     number of atomic types    =            4
     number of electrons       =       654.00
     number of Kohn-Sham states=          337
     kinetic-energy cutoff     =      40.4243  Ry
     charge density cutoff     =     330.7439  Ry
     convergence threshold     =      7.3E-07
     mixing beta               =       0.2000
     number of iterations used =            8  local-TF  mixing
     Exchange-correlation      = PBE ( 1  4  3  4 0)
     nstep                     =           50


     celldm(1)=   1.889726  celldm(2)=   0.000000  celldm(3)=   0.000000
     celldm(4)=   0.000000  celldm(5)=   0.000000  celldm(6)=   0.000000

     crystal axes: (cart. coord. in units of alat)
               a(1) = (  10.224481   0.000000   0.000000 )  
               a(2) = (  -5.112241   8.854660   0.000000 )  
               a(3) = (   0.000000   0.000000  29.646903 )  

     reciprocal axes: (cart. coord. in units 2 pi/alat)
               b(1) = (  0.097804  0.056467  0.000000 )  
               b(2) = (  0.000000  0.112935  0.000000 )  
               b(3) = (  0.000000  0.000000  0.033730 )  


     PseudoPot. # 1 for Cu read from file:
     /gpfs/pace1/project/chbe-medford/medford-share/data/pseudos/SSSP_eff_PBE/Cu.UPF
     MD5 check sum: 6e991ff952a84172a2a52a1c1e996048
     Pseudo is Ultrasoft + core correction, Zval = 19.0
     Generated by new atomic code, or converted to UPF format
     Using radial grid of  867 points,  6 beta functions with: 
                l(1) =   0
                l(2) =   0
                l(3) =   1
                l(4) =   1
                l(5) =   2
                l(6) =   2
     Q(r) pseudized with  8 coefficients,  rinner =    1.150   1.150   1.150
                                                       1.150   1.150

     PseudoPot. # 2 for O  read from file:
     /gpfs/pace1/project/chbe-medford/medford-share/data/pseudos/SSSP_eff_PBE/O.UPF
     MD5 check sum: 734c27235a0248c51dbae37a1fbe46ec
     Pseudo is Ultrasoft + core correction, Zval =  6.0
     Generated by new atomic code, or converted to UPF format
     Using radial grid of  737 points,  5 beta functions with: 
                l(1) =   0
                l(2) =   0
                l(3) =   1
                l(4) =   1
                l(5) =   2
     Q(r) pseudized with  8 coefficients,  rinner =    0.900   0.900   0.900
                                                       0.900   0.900

     PseudoPot. # 3 for C  read from file:
     /gpfs/pace1/project/chbe-medford/medford-share/data/pseudos/SSSP_eff_PBE/C.UPF
     MD5 check sum: d1aef80898a10debaa0f26306b886e00
     Pseudo is Ultrasoft + core correction, Zval =  4.0
     Generated by new atomic code, or converted to UPF format
     Using radial grid of  721 points,  4 beta functions with: 
                l(1) =   0
                l(2) =   0
                l(3) =   1
                l(4) =   1
     Q(r) pseudized with  8 coefficients,  rinner =    1.100   1.100   1.100


     PseudoPot. # 4 for  H read from file:
     /gpfs/pace1/project/chbe-medford/medford-share/data/pseudos/SSSP_eff_PBE/H.UPF
     MD5 check sum: 36633979392af7100e6f6632747262d3
     Pseudo is Ultrasoft, Zval =  1.0
     Generated using "atomic" code by A. Dal Corso  v.5.0.99 svn rev. 10869
     Using radial grid of  929 points,  2 beta functions with: 
                l(1) =   0
                l(2) =   0
     Q(r) pseudized with 0 coefficients 


     atomic species   valence    mass     pseudopotential
        Cu1           19.00    63.54600     Cu( 1.00)
        O1             6.00    15.99940     O ( 1.00)
        C1             4.00    12.01100     C ( 1.00)
        H1             1.00     1.00794      H( 1.00)

     No symmetry found



   Cartesian axes

     site n.     atom                  positions (alat units)
         1           Cu1 tau(   1) = (   0.0000000   0.0000000  10.0000000  )
         2           Cu1 tau(   2) = (   1.2780602   0.7378884  12.0870635  )
         3           Cu1 tau(   3) = (  -1.2780602   2.2136651  10.0000000  )
         4           Cu1 tau(   4) = (   0.0000000   2.9515535  12.0870635  )
         5           Cu1 tau(   5) = (  -2.5561203   4.4273302  10.0000000  )
         6           Cu1 tau(   6) = (  -1.2780602   5.1652186  12.0870635  )
         7           Cu1 tau(   7) = (  -3.8341805   6.6409954  10.0000000  )
         8           Cu1 tau(   8) = (  -2.5561203   7.3788837  12.0870635  )
         9           Cu1 tau(   9) = (   2.5561203   0.0000000  10.0000000  )
        10           Cu1 tau(  10) = (   3.8341805   0.7378884  12.0870635  )
        11           Cu1 tau(  11) = (   1.2780602   2.2136651  10.0000000  )
        12           Cu1 tau(  12) = (   2.5561203   2.9515535  12.0870635  )
        13           Cu1 tau(  13) = (   0.0000000   4.4273302  10.0000000  )
        14           Cu1 tau(  14) = (   1.2780602   5.1652186  12.0870635  )
        15           Cu1 tau(  15) = (  -1.2780602   6.6409954  10.0000000  )
        16           Cu1 tau(  16) = (   0.0000000   7.3788837  12.0870635  )
        17           Cu1 tau(  17) = (   5.1122406   0.0000000  10.0000000  )
        18           Cu1 tau(  18) = (   6.3903008   0.7378884  12.0870635  )
        19           Cu1 tau(  19) = (   3.8341805   2.2136651  10.0000000  )
        20           Cu1 tau(  20) = (   5.1122406   2.9515535  12.0870635  )
        21           Cu1 tau(  21) = (   2.5561203   4.4273302  10.0000000  )
        22           Cu1 tau(  22) = (   3.8341805   5.1652186  12.0870635  )
        23           Cu1 tau(  23) = (   1.2780602   6.6409954  10.0000000  )
        24           Cu1 tau(  24) = (   2.5561203   7.3788837  12.0870635  )
        25           Cu1 tau(  25) = (   7.6683609   0.0000000  10.0000000  )
        26           Cu1 tau(  26) = (   8.9464211   0.7378884  12.0870635  )
        27           Cu1 tau(  27) = (   6.3903008   2.2136651  10.0000000  )
        28           Cu1 tau(  28) = (   7.6683609   2.9515535  12.0870635  )
        29           Cu1 tau(  29) = (   5.1122406   4.4273302  10.0000000  )
        30           Cu1 tau(  30) = (   6.3903008   5.1652186  12.0870635  )
        31           Cu1 tau(  31) = (   3.8341805   6.6409954  10.0000000  )
        32           Cu1 tau(  32) = (   5.1122406   7.3788837  12.0870635  )
        33           O1  tau(  33) = (   3.8852000   6.7898056  16.7387357  )
        34           O1  tau(  34) = (   3.8340000   2.2140000  14.5870635  )
        35           O1  tau(  35) = (   3.8849000   1.7688933  16.8136109  )
        36           C1  tau(  36) = (   3.8712000   4.5013101  17.5175261  )
        37           C1  tau(  37) = (   3.8663000   4.0802607  16.0516052  )
        38           C1  tau(  38) = (   3.8666000   6.0096773  17.6895575  )
        39           C1  tau(  39) = (   3.8331000   6.5153549  19.1084983  )
        40           C1  tau(  40) = (   3.8636000   2.5774018  15.8960331  )
        41           H1  tau(  41) = (   4.7615000   4.1056822  18.0195738  )
        42           H1  tau(  42) = (   2.9867000   4.0992707  18.0248788  )
        43           H1  tau(  43) = (   4.7551000   4.4750101  15.5462791  )
        44           H1  tau(  44) = (   2.9751000   4.4779197  15.5530396  )
        45           H1  tau(  45) = (   2.9204000   6.1686467  19.5994145  )
        46           H1  tau(  46) = (   4.7125000   6.1536997  19.6469034  )
        47           H1  tau(  47) = (   3.8426000   7.6088201  19.1109609  )
        48           H1  tau(  48) = (   3.8321000   1.2391262  14.4785945  )

     number of k points=     4  Fermi-Dirac smearing, width (Ry)=  0.0073
                       cart. coord. in units 2pi/alat
        k(    1) = (   0.0000000   0.0000000   0.0000000), wk =   0.5000000
        k(    2) = (   0.0000000  -0.0564674   0.0000000), wk =   0.5000000
        k(    3) = (   0.0489022  -0.0282337   0.0000000), wk =   0.5000000
        k(    4) = (  -0.0489022  -0.0282337   0.0000000), wk =   0.5000000

     Dense  grid:  1839367 G-vectors     FFT dimensions: ( 120, 120, 360)

     Smooth grid:   628667 G-vectors     FFT dimensions: (  80,  80, 240)

     Largest allocated arrays     est. size (Mb)     dimensions
        Kohn-Sham Wavefunctions        33.97 Mb     (    6606,  337)
        NL pseudopotentials            67.64 Mb     (    6606,  671)
        Each V/rho on FFT grid          6.59 Mb     (  432000)
        Each G-vector array             1.17 Mb     (  153283)
        G-vector shells                 0.37 Mb     (   49024)
     Largest temporary arrays     est. size (Mb)     dimensions
        Auxiliary wavefunctions       135.88 Mb     (    6606, 1348)
        Each subspace H/S matrix       27.73 Mb     (    1348, 1348)
        Each <psi_i|beta_j> matrix      3.45 Mb     (     671,  337)
        Arrays for rho mixing          52.73 Mb     (  432000,    8)

     Initial potential from superposition of free atoms
     Check: negative starting charge=   -0.009960

     starting charge  621.99965, renormalised to  654.00000

     negative rho (up, down):  1.047E-02 0.000E+00
     Starting wfc are  456 randomized atomic wfcs

     total cpu time spent up to now is       66.8 secs

     per-process dynamical memory:   355.6 Mb

     Self-consistent Calculation

     iteration #  1     ecut=    40.42 Ry     beta=0.20
     Davidson diagonalization with overlap
     ethr =  1.00E-02,  avg # of iterations =  4.0

     negative rho (up, down):  2.770E-01 0.000E+00

     total cpu time spent up to now is      265.6 secs

     total energy              =  -13091.75763638 Ry
     Harris-Foulkes estimate   =  -13122.27658598 Ry
     estimated scf accuracy    <     553.91600450 Ry

     iteration #  2     ecut=    40.42 Ry     beta=0.20
     Davidson diagonalization with overlap
     ethr =  1.00E-02,  avg # of iterations =  3.2

     negative rho (up, down):  6.037E-01 0.000E+00

     total cpu time spent up to now is      386.2 secs

     total energy              =  -13062.64070226 Ry
     Harris-Foulkes estimate   =  -13096.76340133 Ry
     estimated scf accuracy    <     327.70058000 Ry

     iteration #  3     ecut=    40.42 Ry     beta=0.20
     Davidson diagonalization with overlap
     ethr =  1.00E-02,  avg # of iterations =  7.2

     negative rho (up, down):  5.289E-01 0.000E+00

     total cpu time spent up to now is      586.9 secs

     total energy              =  -13084.97601801 Ry
     Harris-Foulkes estimate   =  -13089.35682485 Ry
     estimated scf accuracy    <      51.89146075 Ry

     iteration #  4     ecut=    40.42 Ry     beta=0.20
     Davidson diagonalization with overlap
     ethr =  7.93E-03,  avg # of iterations =  1.2

     negative rho (up, down):  4.368E-01 0.000E+00

     total cpu time spent up to now is      701.8 secs

     total energy              =  -13082.70670861 Ry
     Harris-Foulkes estimate   =  -13085.87044319 Ry
     estimated scf accuracy    <      32.33993179 Ry

     iteration #  5     ecut=    40.42 Ry     beta=0.20
     Davidson diagonalization with overlap
     ethr =  4.94E-03,  avg # of iterations =  5.0

     negative rho (up, down):  4.786E-01 0.000E+00

     total cpu time spent up to now is      834.0 secs

     total energy              =  -13083.48005710 Ry
     Harris-Foulkes estimate   =  -13085.67847770 Ry
     estimated scf accuracy    <      18.06369120 Ry

     iteration #  6     ecut=    40.42 Ry     beta=0.20
     Davidson diagonalization with overlap
     ethr =  2.76E-03,  avg # of iterations =  2.2

     negative rho (up, down):  4.619E-01 0.000E+00

     total cpu time spent up to now is      952.3 secs

     total energy              =  -13084.42595842 Ry
     Harris-Foulkes estimate   =  -13084.71846998 Ry
     estimated scf accuracy    <       3.05370290 Ry

     iteration #  7     ecut=    40.42 Ry     beta=0.20
     Davidson diagonalization with overlap
     ethr =  4.67E-04,  avg # of iterations =  2.0

     negative rho (up, down):  3.757E-01 0.000E+00

     total cpu time spent up to now is     1072.3 secs

     total energy              =  -13083.93727460 Ry
     Harris-Foulkes estimate   =  -13084.58725488 Ry
     estimated scf accuracy    <       2.13562434 Ry

     iteration #  8     ecut=    40.42 Ry     beta=0.20
     Davidson diagonalization with overlap
     ethr =  3.27E-04,  avg # of iterations =  4.0

     negative rho (up, down):  3.740E-01 0.000E+00

     total cpu time spent up to now is     1201.3 secs

     total energy              =  -13084.15157945 Ry
     Harris-Foulkes estimate   =  -13084.28388026 Ry
     estimated scf accuracy    <       5.83220503 Ry

     iteration #  9     ecut=    40.42 Ry     beta=0.20
     Davidson diagonalization with overlap
     ethr =  3.27E-04,  avg # of iterations =  1.0

     negative rho (up, down):  3.720E-01 0.000E+00

     total cpu time spent up to now is     1314.7 secs

     total energy              =  -13084.18227232 Ry
     Harris-Foulkes estimate   =  -13084.17596006 Ry
     estimated scf accuracy    <       3.66859494 Ry

     iteration # 10     ecut=    40.42 Ry     beta=0.20
     Davidson diagonalization with overlap
     ethr =  3.27E-04,  avg # of iterations =  1.0

     negative rho (up, down):  3.689E-01 0.000E+00

     total cpu time spent up to now is     1428.1 secs

     total energy              =  -13083.98499388 Ry
     Harris-Foulkes estimate   =  -13084.18727863 Ry
     estimated scf accuracy    <       3.98579666 Ry

     iteration # 11     ecut=    40.42 Ry     beta=0.20
     Davidson diagonalization with overlap
     ethr =  3.27E-04,  avg # of iterations =  3.0

     negative rho (up, down):  3.141E-01 0.000E+00

     total cpu time spent up to now is     1548.7 secs

     total energy              =  -13084.02105031 Ry
     Harris-Foulkes estimate   =  -13084.14970310 Ry
     estimated scf accuracy    <       1.63735311 Ry

     iteration # 12     ecut=    40.42 Ry     beta=0.20
     Davidson diagonalization with overlap
     ethr =  2.50E-04,  avg # of iterations =  2.0

     negative rho (up, down):  2.790E-01 0.000E+00

     total cpu time spent up to now is     1668.7 secs

     total energy              =  -13083.80217580 Ry
     Harris-Foulkes estimate   =  -13084.07966582 Ry
     estimated scf accuracy    <       3.10967182 Ry

     iteration # 13     ecut=    40.42 Ry     beta=0.20
     Davidson diagonalization with overlap
     ethr =  2.50E-04,  avg # of iterations =  3.0

     negative rho (up, down):  2.341E-01 0.000E+00

     total cpu time spent up to now is     1789.3 secs

     total energy              =  -13083.85178277 Ry
     Harris-Foulkes estimate   =  -13084.02975906 Ry
     estimated scf accuracy    <       2.75603701 Ry

     iteration # 14     ecut=    40.42 Ry     beta=0.20
     Davidson diagonalization with overlap
     ethr =  2.50E-04,  avg # of iterations =  3.0

     negative rho (up, down):  2.232E-01 0.000E+00

     total cpu time spent up to now is     1913.3 secs

     total energy              =  -13083.69750406 Ry
     Harris-Foulkes estimate   =  -13083.89475421 Ry
     estimated scf accuracy    <       2.84504624 Ry

     iteration # 15     ecut=    40.42 Ry     beta=0.20
     Davidson diagonalization with overlap
     ethr =  2.50E-04,  avg # of iterations =  2.0

     negative rho (up, down):  1.837E-01 0.000E+00

     total cpu time spent up to now is     2031.6 secs

     total energy              =  -13083.74711425 Ry
     Harris-Foulkes estimate   =  -13083.81335767 Ry
     estimated scf accuracy    <       0.34202597 Ry

     iteration # 16     ecut=    40.42 Ry     beta=0.20
     Davidson diagonalization with overlap
     ethr =  5.23E-05,  avg # of iterations =  3.2

     negative rho (up, down):  1.839E-01 0.000E+00

     total cpu time spent up to now is     2162.8 secs

     total energy              =  -13083.72436659 Ry
     Harris-Foulkes estimate   =  -13083.78293129 Ry
     estimated scf accuracy    <       0.32694948 Ry

     iteration # 17     ecut=    40.42 Ry     beta=0.20
     Davidson diagonalization with overlap
     ethr =  5.00E-05,  avg # of iterations =  4.0

     negative rho (up, down):  2.743E-01 0.000E+00

     total cpu time spent up to now is     2286.7 secs

     total energy              =  -13083.68396138 Ry
     Harris-Foulkes estimate   =  -13083.76280870 Ry
     estimated scf accuracy    <       1.78232709 Ry

     iteration # 18     ecut=    40.42 Ry     beta=0.20
     Davidson diagonalization with overlap
     ethr =  5.00E-05,  avg # of iterations =  2.0

     negative rho (up, down):  2.479E-01 0.000E+00

     total cpu time spent up to now is     2403.7 secs

     total energy              =  -13083.72350069 Ry
     Harris-Foulkes estimate   =  -13083.73113666 Ry
     estimated scf accuracy    <       0.14596470 Ry

     iteration # 19     ecut=    40.42 Ry     beta=0.20
     Davidson diagonalization with overlap
     ethr =  2.23E-05,  avg # of iterations =  3.8

     negative rho (up, down):  2.609E-01 0.000E+00

     total cpu time spent up to now is     2530.7 secs

     total energy              =  -13083.72209038 Ry
     Harris-Foulkes estimate   =  -13083.73147251 Ry
     estimated scf accuracy    <       0.22048328 Ry

     iteration # 20     ecut=    40.42 Ry     beta=0.20
     Davidson diagonalization with overlap
     ethr =  2.23E-05,  avg # of iterations =  3.0

     negative rho (up, down):  2.317E-01 0.000E+00

     total cpu time spent up to now is     2654.8 secs

     total energy              =  -13083.70769509 Ry
     Harris-Foulkes estimate   =  -13083.73182563 Ry
     estimated scf accuracy    <       0.18711152 Ry

     iteration # 21     ecut=    40.42 Ry     beta=0.20
     Davidson diagonalization with overlap
     ethr =  2.23E-05,  avg # of iterations =  3.0

     negative rho (up, down):  9.581E-02 0.000E+00

     total cpu time spent up to now is     2775.5 secs

     total energy              =  -13083.68718895 Ry
     Harris-Foulkes estimate   =  -13083.71452915 Ry
     estimated scf accuracy    <       0.10142277 Ry

     iteration # 22     ecut=    40.42 Ry     beta=0.20
     Davidson diagonalization with overlap
     ethr =  1.55E-05,  avg # of iterations =  4.0

     negative rho (up, down):  1.024E-01 0.000E+00

     total cpu time spent up to now is     2907.7 secs

     total energy              =  -13083.67922525 Ry
     Harris-Foulkes estimate   =  -13083.69739334 Ry
     estimated scf accuracy    <       0.07982202 Ry

     iteration # 23     ecut=    40.42 Ry     beta=0.20
     Davidson diagonalization with overlap
     ethr =  1.22E-05,  avg # of iterations =  3.0

     negative rho (up, down):  9.678E-02 0.000E+00

     total cpu time spent up to now is     3029.0 secs

     total energy              =  -13083.67516584 Ry
     Harris-Foulkes estimate   =  -13083.68365447 Ry
     estimated scf accuracy    <       0.04004539 Ry

     iteration # 24     ecut=    40.42 Ry     beta=0.20
     Davidson diagonalization with overlap
     ethr =  6.12E-06,  avg # of iterations =  2.0

     negative rho (up, down):  6.251E-02 0.000E+00

     total cpu time spent up to now is     3144.2 secs

     total energy              =  -13083.67036996 Ry
     Harris-Foulkes estimate   =  -13083.67640117 Ry
     estimated scf accuracy    <       0.03043063 Ry

     iteration # 25     ecut=    40.42 Ry     beta=0.20
     Davidson diagonalization with overlap
     ethr =  4.65E-06,  avg # of iterations =  2.0

     negative rho (up, down):  6.731E-02 0.000E+00

     total cpu time spent up to now is     3261.7 secs

     total energy              =  -13083.66769756 Ry
     Harris-Foulkes estimate   =  -13083.67166923 Ry
     estimated scf accuracy    <       0.02030886 Ry

     iteration # 26     ecut=    40.42 Ry     beta=0.20
     Davidson diagonalization with overlap
     ethr =  3.11E-06,  avg # of iterations =  2.0

     negative rho (up, down):  4.619E-02 0.000E+00

     total cpu time spent up to now is     3379.2 secs

     total energy              =  -13083.66540526 Ry
     Harris-Foulkes estimate   =  -13083.66818362 Ry
     estimated scf accuracy    <       0.01519676 Ry

     iteration # 27     ecut=    40.42 Ry     beta=0.20
     Davidson diagonalization with overlap
     ethr =  2.32E-06,  avg # of iterations =  2.5

     negative rho (up, down):  5.507E-02 0.000E+00

     total cpu time spent up to now is     3500.3 secs

     total energy              =  -13083.66507838 Ry
     Harris-Foulkes estimate   =  -13083.66575183 Ry
     estimated scf accuracy    <       0.01084283 Ry

     iteration # 28     ecut=    40.42 Ry     beta=0.20
     Davidson diagonalization with overlap
     ethr =  1.66E-06,  avg # of iterations =  3.0

     negative rho (up, down):  5.919E-02 0.000E+00

     total cpu time spent up to now is     3621.2 secs

     total energy              =  -13083.66500672 Ry
     Harris-Foulkes estimate   =  -13083.66532556 Ry
     estimated scf accuracy    <       0.00957072 Ry

     iteration # 29     ecut=    40.42 Ry     beta=0.20
     Davidson diagonalization with overlap
     ethr =  1.46E-06,  avg # of iterations =  1.0

     negative rho (up, down):  3.204E-02 0.000E+00

     total cpu time spent up to now is     3735.0 secs

     total energy              =  -13083.66330211 Ry
     Harris-Foulkes estimate   =  -13083.66508246 Ry
     estimated scf accuracy    <       0.00848411 Ry

     iteration # 30     ecut=    40.42 Ry     beta=0.20
     Davidson diagonalization with overlap
     ethr =  1.30E-06,  avg # of iterations =  3.0

     negative rho (up, down):  2.405E-02 0.000E+00

     total cpu time spent up to now is     3856.7 secs

     total energy              =  -13083.66108135 Ry
     Harris-Foulkes estimate   =  -13083.66356799 Ry
     estimated scf accuracy    <       0.00760932 Ry

     iteration # 31     ecut=    40.42 Ry     beta=0.20
     Davidson diagonalization with overlap
     ethr =  1.16E-06,  avg # of iterations =  4.0

     negative rho (up, down):  2.003E-02 0.000E+00

     total cpu time spent up to now is     3987.5 secs

     total energy              =  -13083.66106050 Ry
     Harris-Foulkes estimate   =  -13083.66143802 Ry
     estimated scf accuracy    <       0.00406418 Ry

     iteration # 32     ecut=    40.42 Ry     beta=0.20
     Davidson diagonalization with overlap
     ethr =  6.21E-07,  avg # of iterations =  1.2

     negative rho (up, down):  2.045E-02 0.000E+00

     total cpu time spent up to now is     4105.0 secs

     total energy              =  -13083.66050706 Ry
     Harris-Foulkes estimate   =  -13083.66109191 Ry
     estimated scf accuracy    <       0.00340578 Ry

     iteration # 33     ecut=    40.42 Ry     beta=0.20
     Davidson diagonalization with overlap
     ethr =  5.21E-07,  avg # of iterations =  3.0

     negative rho (up, down):  2.734E-02 0.000E+00

     total cpu time spent up to now is     4231.2 secs

     total energy              =  -13083.66062019 Ry
     Harris-Foulkes estimate   =  -13083.66067207 Ry
     estimated scf accuracy    <       0.00175765 Ry

     iteration # 34     ecut=    40.42 Ry     beta=0.20
     Davidson diagonalization with overlap
     ethr =  2.69E-07,  avg # of iterations =  2.0

     negative rho (up, down):  2.871E-02 0.000E+00

     total cpu time spent up to now is     4351.8 secs

     total energy              =  -13083.66062214 Ry
     Harris-Foulkes estimate   =  -13083.66067203 Ry
     estimated scf accuracy    <       0.00105884 Ry

     iteration # 35     ecut=    40.42 Ry     beta=0.20
     Davidson diagonalization with overlap
     ethr =  1.62E-07,  avg # of iterations =  4.0

     negative rho (up, down):  2.657E-02 0.000E+00

     total cpu time spent up to now is     4480.6 secs

     total energy              =  -13083.66072512 Ry
     Harris-Foulkes estimate   =  -13083.66073902 Ry
     estimated scf accuracy    <       0.00031859 Ry

     iteration # 36     ecut=    40.42 Ry     beta=0.20
     Davidson diagonalization with overlap
     ethr =  4.87E-08,  avg # of iterations =  1.2

     negative rho (up, down):  9.977E-03 0.000E+00

     total cpu time spent up to now is     4597.1 secs

     total energy              =  -13083.66054949 Ry
     Harris-Foulkes estimate   =  -13083.66072885 Ry
     estimated scf accuracy    <       0.00025435 Ry

     iteration # 37     ecut=    40.42 Ry     beta=0.20
     Davidson diagonalization with overlap
     ethr =  3.89E-08,  avg # of iterations =  3.0

     negative rho (up, down):  6.654E-03 0.000E+00

     total cpu time spent up to now is     4726.7 secs

     total energy              =  -13083.66054362 Ry
     Harris-Foulkes estimate   =  -13083.66056816 Ry
     estimated scf accuracy    <       0.00012087 Ry

     iteration # 38     ecut=    40.42 Ry     beta=0.20
     Davidson diagonalization with overlap
     ethr =  1.85E-08,  avg # of iterations =  3.0

     negative rho (up, down):  4.652E-03 0.000E+00

     total cpu time spent up to now is     4862.0 secs

     total energy              =  -13083.66054263 Ry
     Harris-Foulkes estimate   =  -13083.66055239 Ry
     estimated scf accuracy    <       0.00007001 Ry

     iteration # 39     ecut=    40.42 Ry     beta=0.20
     Davidson diagonalization with overlap
     ethr =  1.07E-08,  avg # of iterations =  2.2

     negative rho (up, down):  3.784E-03 0.000E+00

     total cpu time spent up to now is     4990.2 secs

     total energy              =  -13083.66055996 Ry
     Harris-Foulkes estimate   =  -13083.66054465 Ry
     estimated scf accuracy    <       0.00005195 Ry

     iteration # 40     ecut=    40.42 Ry     beta=0.20
     Davidson diagonalization with overlap
     ethr =  7.94E-09,  avg # of iterations =  4.0

     negative rho (up, down):  3.842E-03 0.000E+00

     total cpu time spent up to now is     5122.3 secs

     total energy              =  -13083.66057456 Ry
     Harris-Foulkes estimate   =  -13083.66056332 Ry
     estimated scf accuracy    <       0.00002808 Ry

     iteration # 41     ecut=    40.42 Ry     beta=0.20
     Davidson diagonalization with overlap
     ethr =  4.29E-09,  avg # of iterations =  2.2

     negative rho (up, down):  3.911E-03 0.000E+00

     total cpu time spent up to now is     5257.0 secs

     total energy              =  -13083.66057737 Ry
     Harris-Foulkes estimate   =  -13083.66057504 Ry
     estimated scf accuracy    <       0.00002169 Ry

     iteration # 42     ecut=    40.42 Ry     beta=0.20
     Davidson diagonalization with overlap
     ethr =  3.32E-09,  avg # of iterations =  3.0

     negative rho (up, down):  3.655E-03 0.000E+00

     total cpu time spent up to now is     5381.1 secs

     total energy              =  -13083.66057504 Ry
     Harris-Foulkes estimate   =  -13083.66057848 Ry
     estimated scf accuracy    <       0.00001242 Ry

     iteration # 43     ecut=    40.42 Ry     beta=0.20
     Davidson diagonalization with overlap
     ethr =  1.90E-09,  avg # of iterations =  3.0

     negative rho (up, down):  3.528E-03 0.000E+00

     total cpu time spent up to now is     5502.9 secs

     total energy              =  -13083.66057277 Ry
     Harris-Foulkes estimate   =  -13083.66057539 Ry
     estimated scf accuracy    <       0.00000887 Ry

     iteration # 44     ecut=    40.42 Ry     beta=0.20
     Davidson diagonalization with overlap
     ethr =  1.36E-09,  avg # of iterations =  2.0

     negative rho (up, down):  3.145E-03 0.000E+00

     total cpu time spent up to now is     5625.1 secs

     total energy              =  -13083.66057609 Ry
     Harris-Foulkes estimate   =  -13083.66057290 Ry
     estimated scf accuracy    <       0.00000731 Ry

     iteration # 45     ecut=    40.42 Ry     beta=0.20
     Davidson diagonalization with overlap
     ethr =  1.12E-09,  avg # of iterations =  2.5

     negative rho (up, down):  3.333E-03 0.000E+00

     total cpu time spent up to now is     5747.6 secs

     total energy              =  -13083.66057561 Ry
     Harris-Foulkes estimate   =  -13083.66057627 Ry
     estimated scf accuracy    <       0.00000458 Ry

     iteration # 46     ecut=    40.42 Ry     beta=0.20
     Davidson diagonalization with overlap
     ethr =  7.00E-10,  avg # of iterations =  3.0

     negative rho (up, down):  3.514E-03 0.000E+00

     total cpu time spent up to now is     5874.5 secs

     total energy              =  -13083.66057557 Ry
     Harris-Foulkes estimate   =  -13083.66057579 Ry
     estimated scf accuracy    <       0.00000297 Ry

     iteration # 47     ecut=    40.42 Ry     beta=0.20
     Davidson diagonalization with overlap
     ethr =  4.54E-10,  avg # of iterations =  2.2

     negative rho (up, down):  3.939E-03 0.000E+00

     total cpu time spent up to now is     5998.0 secs

     total energy              =  -13083.66057533 Ry
     Harris-Foulkes estimate   =  -13083.66057564 Ry
     estimated scf accuracy    <       0.00000205 Ry

     iteration # 48     ecut=    40.42 Ry     beta=0.20
     Davidson diagonalization with overlap
     ethr =  3.14E-10,  avg # of iterations =  2.2

     negative rho (up, down):  4.257E-03 0.000E+00

     total cpu time spent up to now is     6121.6 secs

     total energy              =  -13083.66057535 Ry
     Harris-Foulkes estimate   =  -13083.66057539 Ry
     estimated scf accuracy    <       0.00000100 Ry

     iteration # 49     ecut=    40.42 Ry     beta=0.20
     Davidson diagonalization with overlap
     ethr =  1.53E-10,  avg # of iterations =  3.5

     negative rho (up, down):  4.166E-03 0.000E+00

     total cpu time spent up to now is     6238.1 secs

     End of self-consistent calculation

          k = 0.0000 0.0000 0.0000 ( 78683 PWs)   bands (ev):

  -113.6462-113.6068-113.6018-113.5985-113.5983-113.5978-113.5966-113.5960
  -113.5948-113.5940-113.5933-113.5931-113.5923-113.5916-113.5911-113.5907
  -113.5904-113.5901-113.5894-113.5891-113.5883-113.5874-113.5872-113.5870
  -113.5870-113.5861-113.5860-113.5852-113.5844-113.5840-113.5837-113.5829
   -71.0838 -71.0817 -71.0694 -71.0649 -71.0628 -71.0615 -71.0579 -71.0561
   -71.0532 -71.0524 -71.0517 -71.0511 -71.0504 -71.0497 -71.0479 -71.0469
   -71.0461 -71.0460 -71.0364 -71.0349 -71.0288 -71.0282 -71.0271 -71.0264
   -71.0245 -71.0244 -71.0235 -71.0225 -71.0224 -71.0215 -71.0203 -71.0200
   -71.0193 -71.0191 -71.0189 -71.0181 -71.0136 -71.0134 -71.0129 -71.0125
   -71.0122 -71.0116 -71.0092 -71.0081 -71.0072 -71.0001 -70.9998 -70.9977
   -70.9976 -70.9971 -70.9958 -70.9957 -70.9950 -70.9944 -70.9936 -70.9890
   -70.9875 -70.9860 -70.9856 -70.9842 -70.9840 -70.9838 -70.9832 -70.9762
   -70.9760 -70.9589 -70.9518 -70.9473 -70.9469 -70.9464 -70.9449 -70.9424
   -70.9343 -70.9327 -70.9317 -70.9317 -70.9299 -70.9296 -70.9272 -70.9269
   -70.9225 -70.9146 -70.9139 -70.9134 -70.9128 -70.9117 -70.9109 -70.9096
   -70.9088 -70.9081 -70.9077 -70.9062 -70.9058 -70.9054 -70.9045 -70.9021
   -24.6826 -22.7379 -22.3446 -16.9476 -15.5622 -14.0610 -12.0212  -9.8911
    -9.3146  -9.1802  -9.1617  -8.7672  -8.1057  -7.8423  -7.5720  -7.4895
    -7.4875  -7.4830  -7.4827  -7.4822  -7.4488  -7.1740  -6.6788  -6.5499
    -5.9969  -5.9439  -5.8887  -5.6175  -5.6157  -5.6132  -5.5902  -5.5890
    -5.5870  -5.4513  -5.4512  -5.4493  -5.4488  -5.4485  -5.4479  -5.4417
    -5.3761  -5.3757  -5.3696  -5.3687  -5.3676  -5.3538  -5.1354  -5.1342
    -5.1329  -4.9235  -4.8537  -4.8535  -4.8525  -4.8513  -4.8513  -4.8475
    -4.8024  -4.7998  -4.7996  -4.7975  -4.7973  -4.7848  -4.6019  -4.5995
    -4.5993  -4.5983  -4.5938  -4.5923  -4.3055  -4.3038  -4.3029  -4.2710
    -4.2665  -4.2661  -4.2628  -4.2628  -4.2624  -4.1930  -4.1917  -4.1865
    -4.1856  -4.1855  -4.1841  -4.1824  -4.1531  -4.1478  -4.1473  -4.1459
    -4.1441  -4.1423  -4.0550  -4.0548  -4.0542  -4.0537  -4.0518  -4.0507
    -4.0493  -4.0490  -4.0477  -4.0466  -4.0446  -4.0386  -4.0345  -4.0344
    -3.9574  -3.9573  -3.8973  -3.8919  -3.8901  -3.8873  -3.8872  -3.8816
    -3.8642  -3.8626  -3.8584  -3.8582  -3.8579  -3.8568  -3.7246  -3.7238
    -3.7217  -3.6246  -3.6236  -3.6204  -3.6198  -3.6194  -3.6183  -3.5608
    -3.4148  -3.4146  -3.4121  -3.4121  -3.4109  -3.4103  -3.4091  -3.4028
    -3.4016  -3.3984  -3.3982  -3.3832  -3.3810  -3.3774  -3.3553  -3.2400
    -3.2388  -3.2330  -3.2258  -3.2253  -3.2234  -3.2231  -3.2224  -3.2219
    -3.2121  -3.2093  -3.2060  -3.2051  -3.2038  -3.2037  -3.1442  -3.1308
    -3.1300  -3.1285  -3.1253  -3.1221  -3.1221  -3.1157  -3.1058  -2.9702
    -2.9691  -2.9673  -2.8897  -2.8878  -2.8817  -2.8811  -2.8800  -2.8796
    -2.8791  -2.8786  -2.8005  -2.7931  -2.7930  -2.7920  -2.7918  -2.7893
    -2.6864  -2.6857  -2.6846  -2.6340  -2.6333  -2.6324  -2.5707  -1.9645
    -1.9332  -1.9298  -1.9236  -1.9220  -1.8371  -1.2016  -1.0088  -1.0077
    -1.0068  -1.0056  -1.0028  -0.9901  -0.8593  -0.8560  -0.8389   0.2541
     0.2567

          k = 0.0000-0.0565 0.0000 ( 78550 PWs)   bands (ev):

  -113.6462-113.6068-113.6013-113.5996-113.5991-113.5967-113.5961-113.5956
  -113.5953-113.5940-113.5932-113.5931-113.5928-113.5917-113.5915-113.5907
  -113.5903-113.5893-113.5891-113.5888-113.5886-113.5882-113.5874-113.5870
  -113.5869-113.5858-113.5857-113.5851-113.5845-113.5841-113.5838-113.5829
   -71.0818 -71.0805 -71.0631 -71.0625 -71.0611 -71.0584 -71.0565 -71.0554
   -71.0552 -71.0542 -71.0534 -71.0529 -71.0521 -71.0484 -71.0463 -71.0460
   -71.0456 -71.0433 -71.0430 -71.0426 -71.0388 -71.0383 -71.0370 -71.0367
   -71.0343 -71.0326 -71.0260 -71.0240 -71.0215 -71.0199 -71.0167 -71.0146
   -71.0140 -71.0138 -71.0122 -71.0121 -71.0083 -71.0078 -71.0070 -71.0065
   -71.0048 -71.0045 -71.0033 -71.0026 -71.0026 -71.0011 -71.0008 -70.9976
   -70.9973 -70.9961 -70.9959 -70.9955 -70.9945 -70.9938 -70.9927 -70.9926
   -70.9918 -70.9895 -70.9887 -70.9880 -70.9875 -70.9849 -70.9849 -70.9790
   -70.9787 -70.9571 -70.9533 -70.9497 -70.9495 -70.9428 -70.9402 -70.9397
   -70.9381 -70.9356 -70.9328 -70.9311 -70.9301 -70.9295 -70.9288 -70.9236
   -70.9199 -70.9166 -70.9163 -70.9127 -70.9126 -70.9110 -70.9102 -70.9101
   -70.9080 -70.9076 -70.9074 -70.9069 -70.9066 -70.9052 -70.9044 -70.9021
   -24.6826 -22.7379 -22.3446 -16.9476 -15.5622 -14.0610 -12.0210  -9.8911
    -9.1810  -9.1747  -8.8768  -8.8079  -8.7030  -8.1072  -7.9118  -7.8878
    -7.8068  -7.5478  -7.1780  -6.6410  -6.4414  -6.4393  -6.4383  -6.4227
    -6.2155  -6.2057  -6.1197  -6.1156  -5.9793  -5.9398  -5.8879  -5.5838
    -5.5823  -5.5810  -5.5798  -5.5163  -5.5038  -5.4395  -5.3375  -5.3358
    -5.2791  -5.2750  -5.2743  -5.2708  -5.1099  -5.1082  -5.0298  -5.0211
    -5.0155  -5.0139  -5.0126  -5.0106  -5.0094  -5.0086  -4.9856  -4.9821
    -4.9521  -4.9504  -4.8968  -4.8213  -4.8140  -4.7687  -4.7683  -4.7665
    -4.7597  -4.4287  -4.4261  -4.3671  -4.3666  -4.2412  -4.2353  -4.2337
    -4.2333  -4.2323  -4.2313  -4.2303  -4.2295  -4.2288  -4.2266  -4.2198
    -4.2183  -4.2074  -4.2067  -4.1848  -4.1823  -4.1818  -4.1761  -4.1721
    -4.1685  -4.1361  -4.1323  -4.1096  -4.1076  -4.0675  -4.0656  -4.0018
    -3.9990  -3.9961  -3.9924  -3.9293  -3.9273  -3.8744  -3.8742  -3.8707
    -3.8701  -3.8675  -3.8669  -3.8659  -3.8615  -3.8608  -3.8577  -3.8084
    -3.8056  -3.6824  -3.6807  -3.6779  -3.6699  -3.6683  -3.6649  -3.6647
    -3.6443  -3.6311  -3.6276  -3.6132  -3.6073  -3.6066  -3.6026  -3.6003
    -3.5946  -3.5203  -3.4854  -3.4852  -3.4545  -3.4537  -3.4504  -3.4476
    -3.4303  -3.4051  -3.3610  -3.3442  -3.2898  -3.2848  -3.2818  -3.2802
    -3.2749  -3.2714  -3.2631  -3.2363  -3.2359  -3.2041  -3.1789  -3.1744
    -3.0973  -3.0921  -3.0899  -3.0892  -3.0643  -3.0617  -3.0592  -3.0590
    -3.0235  -3.0169  -3.0160  -3.0150  -3.0145  -3.0129  -2.9987  -2.9966
    -2.9514  -2.9493  -2.9270  -2.9228  -2.9096  -2.9096  -2.9068  -2.9066
    -2.8803  -2.8772  -2.8659  -2.8648  -2.8397  -2.8364  -2.8278  -2.8259
    -2.7891  -2.7822  -2.7813  -2.7799  -2.7432  -2.7020  -2.6406  -2.6405
    -2.6396  -2.6337  -2.5681  -2.1626  -2.1431  -1.0217  -1.0169  -1.0161
    -1.0119  -0.8980  -0.8826  -0.8622  -0.8226  -0.3838  -0.3649  -0.3168
    -0.2265

          k = 0.0489-0.0282 0.0000 ( 78550 PWs)   bands (ev):

  -113.6462-113.6068-113.6013-113.5998-113.5987-113.5976-113.5955-113.5953
  -113.5948-113.5944-113.5937-113.5928-113.5926-113.5922-113.5909-113.5907
  -113.5904-113.5898-113.5896-113.5885-113.5883-113.5878-113.5874-113.5871
  -113.5869-113.5860-113.5857-113.5851-113.5848-113.5838-113.5837-113.5829
   -71.0827 -71.0797 -71.0630 -71.0620 -71.0601 -71.0580 -71.0572 -71.0561
   -71.0548 -71.0543 -71.0538 -71.0526 -71.0512 -71.0486 -71.0472 -71.0472
   -71.0464 -71.0433 -71.0429 -71.0425 -71.0391 -71.0383 -71.0373 -71.0361
   -71.0340 -71.0326 -71.0249 -71.0237 -71.0224 -71.0199 -71.0168 -71.0152
   -71.0141 -71.0129 -71.0122 -71.0107 -71.0091 -71.0084 -71.0068 -71.0058
   -71.0050 -71.0037 -71.0032 -71.0031 -71.0022 -71.0014 -71.0008 -70.9987
   -70.9972 -70.9968 -70.9962 -70.9953 -70.9946 -70.9931 -70.9928 -70.9926
   -70.9916 -70.9898 -70.9890 -70.9883 -70.9866 -70.9854 -70.9845 -70.9796
   -70.9779 -70.9558 -70.9552 -70.9511 -70.9472 -70.9431 -70.9400 -70.9393
   -70.9375 -70.9362 -70.9348 -70.9317 -70.9311 -70.9278 -70.9258 -70.9244
   -70.9220 -70.9165 -70.9144 -70.9135 -70.9132 -70.9107 -70.9101 -70.9098
   -70.9087 -70.9077 -70.9072 -70.9071 -70.9059 -70.9056 -70.9044 -70.9021
   -24.6826 -22.7379 -22.3446 -16.9476 -15.5622 -14.0610 -12.0211  -9.8910
    -9.1813  -9.1739  -8.8728  -8.8094  -8.7079  -8.1044  -7.9080  -7.8908
    -7.8106  -7.5458  -7.1786  -6.6382  -6.4417  -6.4396  -6.4387  -6.4200
    -6.2157  -6.2049  -6.1201  -6.1177  -5.9847  -5.9417  -5.8874  -5.5832
    -5.5818  -5.5798  -5.5788  -5.5139  -5.5010  -5.4406  -5.3406  -5.3360
    -5.2767  -5.2739  -5.2729  -5.2708  -5.1097  -5.1081  -5.0261  -5.0183
    -5.0171  -5.0149  -5.0131  -5.0106  -5.0099  -5.0079  -4.9914  -4.9831
    -4.9612  -4.9513  -4.8886  -4.8211  -4.8171  -4.7694  -4.7678  -4.7648
    -4.7558  -4.4285  -4.4265  -4.3704  -4.3660  -4.2401  -4.2388  -4.2346
    -4.2334  -4.2314  -4.2305  -4.2299  -4.2294  -4.2280  -4.2257  -4.2191
    -4.2183  -4.2076  -4.2068  -4.1858  -4.1835  -4.1803  -4.1771  -4.1718
    -4.1693  -4.1360  -4.1322  -4.1086  -4.1080  -4.0671  -4.0648  -4.0002
    -3.9995  -3.9957  -3.9946  -3.9280  -3.9271  -3.8749  -3.8740  -3.8729
    -3.8709  -3.8668  -3.8662  -3.8644  -3.8633  -3.8607  -3.8588  -3.8092
    -3.8047  -3.6841  -3.6770  -3.6765  -3.6703  -3.6673  -3.6666  -3.6638
    -3.6449  -3.6325  -3.6278  -3.6137  -3.6098  -3.6024  -3.6016  -3.6010
    -3.5950  -3.5203  -3.4856  -3.4841  -3.4559  -3.4530  -3.4522  -3.4485
    -3.4303  -3.4031  -3.3593  -3.3416  -3.2902  -3.2844  -3.2837  -3.2776
    -3.2747  -3.2728  -3.2634  -3.2366  -3.2346  -3.2101  -3.1800  -3.1697
    -3.0948  -3.0918  -3.0906  -3.0899  -3.0655  -3.0625  -3.0586  -3.0581
    -3.0231  -3.0180  -3.0172  -3.0142  -3.0131  -3.0121  -2.9994  -2.9965
    -2.9526  -2.9493  -2.9279  -2.9231  -2.9095  -2.9089  -2.9066  -2.9053
    -2.8818  -2.8761  -2.8668  -2.8626  -2.8403  -2.8359  -2.8282  -2.8251
    -2.7901  -2.7834  -2.7814  -2.7794  -2.7399  -2.7081  -2.6415  -2.6401
    -2.6393  -2.6347  -2.5660  -2.1729  -2.1284  -1.0201  -1.0186  -1.0162
    -1.0133  -0.9006  -0.8767  -0.8656  -0.8251  -0.3731  -0.3608  -0.3196
    -0.2497

          k =-0.0489-0.0282 0.0000 ( 78550 PWs)   bands (ev):

  -113.6462-113.6068-113.6013-113.5998-113.5986-113.5976-113.5956-113.5953
  -113.5949-113.5943-113.5937-113.5928-113.5926-113.5922-113.5909-113.5906
  -113.5905-113.5897-113.5896-113.5886-113.5883-113.5878-113.5874-113.5871
  -113.5869-113.5860-113.5857-113.5852-113.5848-113.5839-113.5837-113.5829
   -71.0827 -71.0797 -71.0630 -71.0620 -71.0602 -71.0580 -71.0573 -71.0561
   -71.0548 -71.0543 -71.0538 -71.0526 -71.0512 -71.0487 -71.0472 -71.0472
   -71.0463 -71.0433 -71.0429 -71.0425 -71.0391 -71.0382 -71.0374 -71.0361
   -71.0340 -71.0326 -71.0249 -71.0237 -71.0224 -71.0199 -71.0167 -71.0152
   -71.0142 -71.0129 -71.0122 -71.0107 -71.0091 -71.0084 -71.0068 -71.0058
   -71.0050 -71.0038 -71.0032 -71.0031 -71.0022 -71.0014 -71.0008 -70.9987
   -70.9972 -70.9968 -70.9962 -70.9953 -70.9946 -70.9931 -70.9928 -70.9927
   -70.9916 -70.9899 -70.9890 -70.9883 -70.9866 -70.9854 -70.9845 -70.9796
   -70.9779 -70.9558 -70.9552 -70.9511 -70.9472 -70.9431 -70.9400 -70.9393
   -70.9375 -70.9362 -70.9349 -70.9316 -70.9311 -70.9278 -70.9258 -70.9244
   -70.9219 -70.9165 -70.9144 -70.9135 -70.9132 -70.9107 -70.9102 -70.9098
   -70.9087 -70.9076 -70.9072 -70.9071 -70.9059 -70.9056 -70.9043 -70.9021
   -24.6826 -22.7379 -22.3446 -16.9476 -15.5622 -14.0610 -12.0211  -9.8910
    -9.1809  -9.1744  -8.8727  -8.8093  -8.7080  -8.1044  -7.9079  -7.8909
    -7.8105  -7.5458  -7.1786  -6.6380  -6.4416  -6.4396  -6.4387  -6.4201
    -6.2155  -6.2053  -6.1199  -6.1178  -5.9845  -5.9419  -5.8876  -5.5833
    -5.5818  -5.5799  -5.5788  -5.5140  -5.5009  -5.4405  -5.3404  -5.3361
    -5.2769  -5.2739  -5.2729  -5.2707  -5.1097  -5.1081  -5.0264  -5.0182
    -5.0171  -5.0149  -5.0131  -5.0106  -5.0098  -5.0079  -4.9917  -4.9829
    -4.9609  -4.9513  -4.8891  -4.8211  -4.8171  -4.7694  -4.7679  -4.7651
    -4.7551  -4.4285  -4.4265  -4.3702  -4.3662  -4.2401  -4.2389  -4.2345
    -4.2335  -4.2314  -4.2305  -4.2299  -4.2293  -4.2280  -4.2257  -4.2191
    -4.2182  -4.2076  -4.2069  -4.1855  -4.1836  -4.1805  -4.1771  -4.1717
    -4.1694  -4.1360  -4.1324  -4.1086  -4.1079  -4.0672  -4.0648  -4.0003
    -3.9994  -3.9956  -3.9949  -3.9280  -3.9269  -3.8746  -3.8738  -3.8729
    -3.8709  -3.8669  -3.8662  -3.8644  -3.8633  -3.8607  -3.8588  -3.8092
    -3.8047  -3.6841  -3.6771  -3.6765  -3.6704  -3.6673  -3.6666  -3.6640
    -3.6447  -3.6326  -3.6279  -3.6139  -3.6098  -3.6024  -3.6016  -3.6010
    -3.5950  -3.5203  -3.4856  -3.4841  -3.4558  -3.4530  -3.4522  -3.4484
    -3.4303  -3.4032  -3.3592  -3.3416  -3.2902  -3.2844  -3.2837  -3.2776
    -3.2748  -3.2729  -3.2633  -3.2366  -3.2346  -3.2100  -3.1800  -3.1698
    -3.0948  -3.0918  -3.0906  -3.0899  -3.0655  -3.0625  -3.0586  -3.0581
    -3.0230  -3.0180  -3.0172  -3.0142  -3.0131  -3.0121  -2.9994  -2.9965
    -2.9526  -2.9493  -2.9279  -2.9231  -2.9095  -2.9089  -2.9066  -2.9053
    -2.8818  -2.8761  -2.8668  -2.8626  -2.8403  -2.8359  -2.8282  -2.8251
    -2.7900  -2.7834  -2.7815  -2.7794  -2.7398  -2.7080  -2.6414  -2.6401
    -2.6393  -2.6347  -2.5661  -2.1727  -2.1286  -1.0201  -1.0186  -1.0162
    -1.0133  -0.9005  -0.8766  -0.8660  -0.8253  -0.3731  -0.3607  -0.3191
    -0.2499

     the Fermi energy is    -1.0879 ev

!    total energy              =  -13083.66057533 Ry
     Harris-Foulkes estimate   =  -13083.66057543 Ry
     estimated scf accuracy    <       0.00000034 Ry

     The total energy is the sum of the following terms:

     one-electron contribution = -113488.22950719 Ry
     hartree contribution      =   56739.88631095 Ry
     xc contribution           =   -1285.97130192 Ry
     ewald contribution        =   44950.71522364 Ry
     smearing contrib. (-TS)   =      -0.06130080 Ry

     convergence has been achieved in  49 iterations

     Forces acting on atoms (Ry/au):


     negative rho (up, down):  4.166E-03 0.000E+00
     atom    1 type  1   force =    -0.00024811    0.00000318    0.00117955
     atom    2 type  1   force =     0.00012904   -0.00051795   -0.00154194
     atom    3 type  1   force =     0.00000280   -0.00003980    0.00087425
     atom    4 type  1   force =    -0.00017648   -0.00006833   -0.00077101
     atom    5 type  1   force =    -0.00010418   -0.00003488    0.00078035
     atom    6 type  1   force =    -0.00000187   -0.00010700   -0.00159523
     atom    7 type  1   force =    -0.00002190   -0.00012407    0.00117256
     atom    8 type  1   force =     0.00022534    0.00083387   -0.00002124
     atom    9 type  1   force =    -0.00005481    0.00039990    0.00017386
     atom   10 type  1   force =     0.00000202   -0.00836274   -0.01385438
     atom   11 type  1   force =     0.00034017   -0.00014508    0.00132172
     atom   12 type  1   force =    -0.00340869    0.00156862   -0.00312721
     atom   13 type  1   force =     0.00010900   -0.00003617    0.00078803
     atom   14 type  1   force =     0.00007964    0.00007253   -0.00092652
     atom   15 type  1   force =    -0.00000038   -0.00000771    0.00109196
     atom   16 type  1   force =    -0.00021778    0.00082422   -0.00002857
     atom   17 type  1   force =     0.00005146    0.00039829    0.00017743
     atom   18 type  1   force =    -0.00010036   -0.00052486   -0.00155765
     atom   19 type  1   force =    -0.00000127    0.00008606    0.00171449
     atom   20 type  1   force =     0.00338540    0.00154469   -0.00314583
     atom   21 type  1   force =     0.00026970   -0.00013622    0.00138871
     atom   22 type  1   force =    -0.00000657    0.00158398   -0.00259215
     atom   23 type  1   force =     0.00001963   -0.00012718    0.00116321
     atom   24 type  1   force =    -0.00006639   -0.00016002   -0.00073528
     atom   25 type  1   force =     0.00025116    0.00000057    0.00117371
     atom   26 type  1   force =     0.00000205    0.00027597   -0.00099029
     atom   27 type  1   force =    -0.00034124   -0.00014596    0.00131964
     atom   28 type  1   force =     0.00017151   -0.00006459   -0.00076429
     atom   29 type  1   force =    -0.00027528   -0.00013357    0.00138745
     atom   30 type  1   force =    -0.00007157    0.00005962   -0.00092992
     atom   31 type  1   force =     0.00000093    0.00008808    0.00056247
     atom   32 type  1   force =     0.00005984   -0.00015412   -0.00071044
     atom   33 type  2   force =     0.00006373   -0.01755398    0.01011590
     atom   34 type  2   force =    -0.00055433    0.01378055   -0.00984177
     atom   35 type  2   force =    -0.00043376    0.01174823   -0.02104445
     atom   36 type  3   force =    -0.00060806    0.01042653   -0.02101098
     atom   37 type  3   force =    -0.00005360   -0.01130094    0.01633576
     atom   38 type  3   force =    -0.00041012    0.02094194   -0.01725049
     atom   39 type  3   force =     0.00106949    0.01084180   -0.00899999
     atom   40 type  3   force =     0.00084720   -0.01589953    0.03796692
     atom   41 type  4   force =    -0.00004040   -0.00624570    0.00926237
     atom   42 type  4   force =     0.00048746   -0.00616111    0.00941319
     atom   43 type  4   force =    -0.00186007    0.00559159   -0.00999884
     atom   44 type  4   force =     0.00192240    0.00557217   -0.01014635
     atom   45 type  4   force =    -0.00246067   -0.00689309    0.01020880
     atom   46 type  4   force =     0.00179877   -0.00709556    0.01069045
     atom   47 type  4   force =    -0.00009590    0.00281301   -0.00129675
     atom   48 type  4   force =     0.00032507   -0.00741524    0.01261878

     Total force =     0.079259     Total SCF correction =     0.003434
 !ASE

     Writing output data file calc.save
     Check: negative starting charge=   -0.009960
     NEW-OLD atomic charge density approx. for the potential
     Check: negative starting charge=   -0.009892

     negative rho (up, down):  4.997E-03 0.000E+00

     total cpu time spent up to now is     6325.0 secs

     per-process dynamical memory:   388.4 Mb

     Self-consistent Calculation

     iteration #  1     ecut=    40.42 Ry     beta=0.20
     Davidson diagonalization with overlap
     ethr =  1.53E-10,  avg # of iterations = 13.5

     negative rho (up, down):  4.309E-03 0.000E+00

     total cpu time spent up to now is     6744.2 secs

     total energy              =  -13083.52822105 Ry
     Harris-Foulkes estimate   =  -13083.53647896 Ry
     estimated scf accuracy    <       0.07353687 Ry

     iteration #  2     ecut=    40.42 Ry     beta=0.20
     Davidson diagonalization with overlap
     ethr =  1.12E-05,  avg # of iterations =  2.0

     negative rho (up, down):  5.278E-03 0.000E+00

     total cpu time spent up to now is     6866.3 secs

     total energy              =  -13083.50504846 Ry
     Harris-Foulkes estimate   =  -13083.52854296 Ry
     estimated scf accuracy    <       0.05157719 Ry

     iteration #  3     ecut=    40.42 Ry     beta=0.20
     Davidson diagonalization with overlap
     ethr =  7.89E-06,  avg # of iterations =  3.0

     negative rho (up, down):  4.192E-03 0.000E+00

     total cpu time spent up to now is     7010.0 secs

     total energy              =  -13083.51121114 Ry
     Harris-Foulkes estimate   =  -13083.51195228 Ry
     estimated scf accuracy    <       0.00659442 Ry

     iteration #  4     ecut=    40.42 Ry     beta=0.20
     Davidson diagonalization with overlap
     ethr =  1.01E-06,  avg # of iterations =  3.0

     negative rho (up, down):  3.796E-03 0.000E+00

     total cpu time spent up to now is     7149.1 secs

     total energy              =  -13083.51063638 Ry
     Harris-Foulkes estimate   =  -13083.51148024 Ry
     estimated scf accuracy    <       0.00414370 Ry

     iteration #  5     ecut=    40.42 Ry     beta=0.20
     Davidson diagonalization with overlap
     ethr =  6.34E-07,  avg # of iterations =  3.5

     negative rho (up, down):  3.068E-03 0.000E+00

     total cpu time spent up to now is     7293.8 secs

     total energy              =  -13083.51056627 Ry
     Harris-Foulkes estimate   =  -13083.51086991 Ry
     estimated scf accuracy    <       0.00245659 Ry

     iteration #  6     ecut=    40.42 Ry     beta=0.20
     Davidson diagonalization with overlap
     ethr =  3.76E-07,  avg # of iterations =  3.0

     negative rho (up, down):  2.652E-03 0.000E+00

     total cpu time spent up to now is     7428.9 secs

     total energy              =  -13083.51052106 Ry
     Harris-Foulkes estimate   =  -13083.51065185 Ry
     estimated scf accuracy    <       0.00160502 Ry

     iteration #  7     ecut=    40.42 Ry     beta=0.20
     Davidson diagonalization with overlap
     ethr =  2.45E-07,  avg # of iterations =  3.0

     negative rho (up, down):  2.315E-03 0.000E+00

     total cpu time spent up to now is     7562.8 secs

     total energy              =  -13083.51031960 Ry
     Harris-Foulkes estimate   =  -13083.51056240 Ry
     estimated scf accuracy    <       0.00133630 Ry

     iteration #  8     ecut=    40.42 Ry     beta=0.20
     Davidson diagonalization with overlap
     ethr =  2.04E-07,  avg # of iterations =  3.0

     negative rho (up, down):  2.242E-03 0.000E+00

     total cpu time spent up to now is     7691.5 secs

     total energy              =  -13083.51032128 Ry
     Harris-Foulkes estimate   =  -13083.51040586 Ry
     estimated scf accuracy    <       0.00117411 Ry

     iteration #  9     ecut=    40.42 Ry     beta=0.20
     Davidson diagonalization with overlap
     ethr =  1.80E-07,  avg # of iterations =  1.2

     negative rho (up, down):  2.927E-03 0.000E+00

     total cpu time spent up to now is     7819.2 secs

     total energy              =  -13083.51014331 Ry
     Harris-Foulkes estimate   =  -13083.51034712 Ry
     estimated scf accuracy    <       0.00081441 Ry

     iteration # 10     ecut=    40.42 Ry     beta=0.20
     Davidson diagonalization with overlap
     ethr =  1.25E-07,  avg # of iterations =  3.0

     negative rho (up, down):  2.918E-03 0.000E+00

     total cpu time spent up to now is     7956.1 secs

     total energy              =  -13083.51013576 Ry
     Harris-Foulkes estimate   =  -13083.51020413 Ry
     estimated scf accuracy    <       0.00060455 Ry

     iteration # 11     ecut=    40.42 Ry     beta=0.20
     Davidson diagonalization with overlap
     ethr =  9.24E-08,  avg # of iterations =  3.0

     negative rho (up, down):  3.379E-03 0.000E+00

     total cpu time spent up to now is     8090.9 secs

     total energy              =  -13083.51002415 Ry
     Harris-Foulkes estimate   =  -13083.51015952 Ry
     estimated scf accuracy    <       0.00040332 Ry

     iteration # 12     ecut=    40.42 Ry     beta=0.20
     Davidson diagonalization with overlap
     ethr =  6.17E-08,  avg # of iterations =  3.2

     negative rho (up, down):  3.239E-03 0.000E+00

     total cpu time spent up to now is     8228.3 secs

     total energy              =  -13083.51002831 Ry
     Harris-Foulkes estimate   =  -13083.51005262 Ry
     estimated scf accuracy    <       0.00017843 Ry

     iteration # 13     ecut=    40.42 Ry     beta=0.20
     Davidson diagonalization with overlap
     ethr =  2.73E-08,  avg # of iterations =  2.5

     negative rho (up, down):  2.794E-03 0.000E+00

     total cpu time spent up to now is     8364.4 secs

     total energy              =  -13083.51000777 Ry
     Harris-Foulkes estimate   =  -13083.51003518 Ry
     estimated scf accuracy    <       0.00014461 Ry

     iteration # 14     ecut=    40.42 Ry     beta=0.20
     Davidson diagonalization with overlap
     ethr =  2.21E-08,  avg # of iterations =  3.0

     negative rho (up, down):  2.782E-03 0.000E+00

     total cpu time spent up to now is     8492.2 secs

     total energy              =  -13083.51000901 Ry
     Harris-Foulkes estimate   =  -13083.51002187 Ry
     estimated scf accuracy    <       0.00007921 Ry

     iteration # 15     ecut=    40.42 Ry     beta=0.20
     Davidson diagonalization with overlap
     ethr =  1.21E-08,  avg # of iterations =  2.0

     negative rho (up, down):  2.677E-03 0.000E+00

     total cpu time spent up to now is     8625.4 secs

     total energy              =  -13083.51000219 Ry
     Harris-Foulkes estimate   =  -13083.51001348 Ry
     estimated scf accuracy    <       0.00005585 Ry

     iteration # 16     ecut=    40.42 Ry     beta=0.20
     Davidson diagonalization with overlap
     ethr =  8.54E-09,  avg # of iterations =  3.0

     negative rho (up, down):  2.743E-03 0.000E+00

     total cpu time spent up to now is     8759.8 secs

     total energy              =  -13083.50999715 Ry
     Harris-Foulkes estimate   =  -13083.51000613 Ry
     estimated scf accuracy    <       0.00003310 Ry

     iteration # 17     ecut=    40.42 Ry     beta=0.20
     Davidson diagonalization with overlap
     ethr =  5.06E-09,  avg # of iterations =  3.0

     negative rho (up, down):  2.905E-03 0.000E+00

     total cpu time spent up to now is     8901.0 secs

     total energy              =  -13083.50999404 Ry
     Harris-Foulkes estimate   =  -13083.50999909 Ry
     estimated scf accuracy    <       0.00001852 Ry

     iteration # 18     ecut=    40.42 Ry     beta=0.20
     Davidson diagonalization with overlap
     ethr =  2.83E-09,  avg # of iterations =  3.0

     negative rho (up, down):  2.992E-03 0.000E+00

     total cpu time spent up to now is     9032.9 secs

     total energy              =  -13083.50999308 Ry
     Harris-Foulkes estimate   =  -13083.50999580 Ry
     estimated scf accuracy    <       0.00001245 Ry

     iteration # 19     ecut=    40.42 Ry     beta=0.20
     Davidson diagonalization with overlap
     ethr =  1.90E-09,  avg # of iterations =  3.0

     negative rho (up, down):  3.236E-03 0.000E+00

     total cpu time spent up to now is     9159.4 secs

     total energy              =  -13083.50999273 Ry
     Harris-Foulkes estimate   =  -13083.50999405 Ry
     estimated scf accuracy    <       0.00000751 Ry

     iteration # 20     ecut=    40.42 Ry     beta=0.20
     Davidson diagonalization with overlap
     ethr =  1.15E-09,  avg # of iterations =  3.0

     negative rho (up, down):  3.399E-03 0.000E+00

     total cpu time spent up to now is     9285.5 secs

     total energy              =  -13083.50999273 Ry
     Harris-Foulkes estimate   =  -13083.50999315 Ry
     estimated scf accuracy    <       0.00000346 Ry

     iteration # 21     ecut=    40.42 Ry     beta=0.20
     Davidson diagonalization with overlap
     ethr =  5.29E-10,  avg # of iterations =  3.0

     negative rho (up, down):  3.520E-03 0.000E+00

     total cpu time spent up to now is     9414.4 secs

     total energy              =  -13083.50999250 Ry
     Harris-Foulkes estimate   =  -13083.50999293 Ry
     estimated scf accuracy    <       0.00000178 Ry

     iteration # 22     ecut=    40.42 Ry     beta=0.20
     Davidson diagonalization with overlap
     ethr =  2.72E-10,  avg # of iterations =  3.0

     negative rho (up, down):  3.602E-03 0.000E+00

     total cpu time spent up to now is     9538.4 secs

     total energy              =  -13083.50999228 Ry
     Harris-Foulkes estimate   =  -13083.50999257 Ry
     estimated scf accuracy    <       0.00000119 Ry

     iteration # 23     ecut=    40.42 Ry     beta=0.20
     Davidson diagonalization with overlap
     ethr =  1.81E-10,  avg # of iterations =  2.0

     negative rho (up, down):  3.721E-03 0.000E+00

     total cpu time spent up to now is     9664.6 secs

     total energy              =  -13083.50999193 Ry
     Harris-Foulkes estimate   =  -13083.50999231 Ry
     estimated scf accuracy    <       0.00000077 Ry

     iteration # 24     ecut=    40.42 Ry     beta=0.20
     Davidson diagonalization with overlap
     ethr =  1.18E-10,  avg # of iterations =  2.2

     negative rho (up, down):  4.195E-03 0.000E+00

     total cpu time spent up to now is     9774.4 secs

     End of self-consistent calculation

          k = 0.0000 0.0000 0.0000 ( 78683 PWs)   bands (ev):

  -113.5173-113.4786-113.4669-113.4634-113.4627-113.4611-113.4607-113.4602
  -113.4584-113.4580-113.4570-113.4564-113.4561-113.4557-113.4549-113.4547
  -113.4543-113.4541-113.4534-113.4530-113.4525-113.4523-113.4513-113.4513
  -113.4511-113.4502-113.4501-113.4497-113.4489-113.4483-113.4471-113.4467
   -70.9516 -70.9505 -70.9339 -70.9304 -70.9276 -70.9267 -70.9237 -70.9212
   -70.9169 -70.9164 -70.9149 -70.9142 -70.9138 -70.9132 -70.9117 -70.9113
   -70.9105 -70.9105 -70.9011 -70.8999 -70.8925 -70.8921 -70.8907 -70.8898
   -70.8876 -70.8873 -70.8872 -70.8864 -70.8856 -70.8847 -70.8847 -70.8843
   -70.8840 -70.8830 -70.8824 -70.8816 -70.8780 -70.8779 -70.8775 -70.8761
   -70.8760 -70.8748 -70.8729 -70.8718 -70.8700 -70.8679 -70.8636 -70.8631
   -70.8607 -70.8602 -70.8600 -70.8599 -70.8589 -70.8583 -70.8575 -70.8522
   -70.8504 -70.8494 -70.8488 -70.8483 -70.8482 -70.8477 -70.8474 -70.8399
   -70.8396 -70.8252 -70.8200 -70.8131 -70.8122 -70.8120 -70.8107 -70.8100
   -70.8017 -70.7984 -70.7969 -70.7954 -70.7953 -70.7943 -70.7934 -70.7931
   -70.7874 -70.7797 -70.7794 -70.7775 -70.7772 -70.7768 -70.7765 -70.7762
   -70.7746 -70.7734 -70.7720 -70.7707 -70.7700 -70.7696 -70.7692 -70.7672
   -26.3241 -24.7051 -22.3510 -17.0143 -15.3677 -13.5578 -11.0699 -10.0658
    -9.4877  -9.4591  -9.1708  -9.1158  -8.5831  -8.4494  -7.9125  -7.4085
    -7.3753  -7.3645  -7.3575  -7.3561  -7.3553  -7.2246  -7.0716  -6.5244
    -6.4456  -6.2184  -6.1615  -5.4978  -5.4862  -5.4851  -5.4636  -5.4633
    -5.4584  -5.3569  -5.3329  -5.3292  -5.3276  -5.3243  -5.3218  -5.3098
    -5.2514  -5.2402  -5.2367  -5.2339  -5.2266  -5.2215  -5.0078  -5.0077
    -5.0063  -4.7979  -4.7297  -4.7295  -4.7263  -4.7205  -4.7203  -4.7183
    -4.6808  -4.6737  -4.6717  -4.6679  -4.6673  -4.6518  -4.4897  -4.4743
    -4.4706  -4.4694  -4.4656  -4.4655  -4.2814  -4.1671  -4.1639  -4.1590
    -4.1375  -4.1328  -4.1295  -4.1293  -4.1261  -4.1243  -4.0668  -4.0564
    -4.0522  -4.0512  -4.0495  -4.0425  -4.0307  -4.0230  -4.0158  -4.0137
    -4.0104  -4.0066  -3.9909  -3.9240  -3.9186  -3.9183  -3.9158  -3.9150
    -3.9128  -3.9110  -3.9096  -3.9090  -3.9081  -3.9073  -3.9005  -3.9002
    -3.8529  -3.8233  -3.8233  -3.7573  -3.7528  -3.7513  -3.7498  -3.7457
    -3.7313  -3.7310  -3.7254  -3.7235  -3.7228  -3.7203  -3.6583  -3.5974
    -3.5968  -3.5919  -3.4991  -3.4973  -3.4920  -3.4913  -3.4889  -3.4888
    -3.2874  -3.2818  -3.2780  -3.2773  -3.2756  -3.2749  -3.2734  -3.2651
    -3.2638  -3.2618  -3.2532  -3.2467  -3.2433  -3.2407  -3.2286  -3.1185
    -3.1054  -3.1037  -3.0912  -3.0859  -3.0858  -3.0852  -3.0840  -3.0817
    -3.0713  -3.0671  -3.0651  -3.0647  -3.0628  -3.0624  -3.0017  -2.9920
    -2.9910  -2.9900  -2.9872  -2.9871  -2.9858  -2.9726  -2.9645  -2.8298
    -2.8284  -2.8278  -2.7483  -2.7446  -2.7419  -2.7414  -2.7412  -2.7408
    -2.7385  -2.7381  -2.7175  -2.6596  -2.6550  -2.6542  -2.6537  -2.6534
    -2.6484  -2.5512  -2.5503  -2.5484  -2.4968  -2.4963  -2.4950  -1.8156
    -1.7967  -1.7922  -1.7874  -1.7692  -1.6744  -1.0669  -0.8771  -0.8768
    -0.8708  -0.8704  -0.8661  -0.8469  -0.7246  -0.7223  -0.7031   0.3932
     0.3938

          k = 0.0000-0.0565 0.0000 ( 78550 PWs)   bands (ev):

  -113.5173-113.4786-113.4666-113.4637-113.4633-113.4611-113.4603-113.4592
  -113.4589-113.4580-113.4570-113.4563-113.4562-113.4555-113.4552-113.4551
  -113.4543-113.4538-113.4534-113.4533-113.4523-113.4522-113.4516-113.4511
  -113.4510-113.4503-113.4501-113.4498-113.4489-113.4483-113.4471-113.4467
   -70.9502 -70.9497 -70.9281 -70.9279 -70.9256 -70.9238 -70.9208 -70.9195
   -70.9186 -70.9182 -70.9179 -70.9176 -70.9162 -70.9117 -70.9107 -70.9097
   -70.9096 -70.9070 -70.9064 -70.9062 -70.9031 -70.9022 -70.9010 -70.9007
   -70.8981 -70.8963 -70.8902 -70.8862 -70.8856 -70.8830 -70.8796 -70.8790
   -70.8782 -70.8776 -70.8774 -70.8762 -70.8733 -70.8716 -70.8709 -70.8698
   -70.8692 -70.8688 -70.8684 -70.8680 -70.8657 -70.8644 -70.8641 -70.8633
   -70.8604 -70.8601 -70.8593 -70.8586 -70.8585 -70.8574 -70.8567 -70.8563
   -70.8553 -70.8544 -70.8523 -70.8517 -70.8511 -70.8486 -70.8483 -70.8428
   -70.8425 -70.8239 -70.8195 -70.8166 -70.8154 -70.8108 -70.8059 -70.8049
   -70.8038 -70.8016 -70.7988 -70.7960 -70.7956 -70.7952 -70.7943 -70.7891
   -70.7843 -70.7822 -70.7814 -70.7785 -70.7772 -70.7759 -70.7756 -70.7753
   -70.7738 -70.7737 -70.7717 -70.7711 -70.7710 -70.7695 -70.7689 -70.7671
   -26.3241 -24.7050 -22.3510 -17.0143 -15.3677 -13.5578 -11.0696 -10.0659
    -9.4851  -9.4593  -9.1166  -8.6929  -8.6865  -8.5826  -8.4405  -7.9149
    -7.7671  -7.7664  -7.2256  -7.1262  -6.4950  -6.3222  -6.3172  -6.3153
    -6.3013  -6.2184  -6.1730  -6.0830  -6.0530  -5.9924  -5.9862  -5.4652
    -5.4593  -5.4559  -5.4533  -5.4069  -5.3764  -5.3028  -5.2073  -5.2055
    -5.1509  -5.1433  -5.1426  -5.1425  -4.9874  -4.9832  -4.9035  -4.8943
    -4.8845  -4.8842  -4.8831  -4.8824  -4.8816  -4.8800  -4.8612  -4.8521
    -4.8261  -4.8225  -4.7689  -4.6963  -4.6845  -4.6500  -4.6396  -4.6356
    -4.6277  -4.3222  -4.2996  -4.2823  -4.2376  -4.2171  -4.1055  -4.1027
    -4.0980  -4.0970  -4.0947  -4.0939  -4.0919  -4.0918  -4.0913  -4.0862
    -4.0842  -4.0768  -4.0718  -4.0676  -4.0529  -4.0481  -4.0389  -4.0382
    -4.0374  -4.0099  -4.0048  -3.9896  -3.9726  -3.9525  -3.9307  -3.9230
    -3.8651  -3.8599  -3.8598  -3.8342  -3.7922  -3.7884  -3.7459  -3.7403
    -3.7366  -3.7350  -3.7346  -3.7322  -3.7303  -3.7298  -3.7233  -3.7082
    -3.6743  -3.6731  -3.5592  -3.5484  -3.5375  -3.5358  -3.5320  -3.5313
    -3.5146  -3.5012  -3.4949  -3.4925  -3.4732  -3.4705  -3.4687  -3.4646
    -3.4604  -3.4413  -3.3519  -3.3515  -3.3219  -3.3173  -3.3142  -3.3129
    -3.2925  -3.2797  -3.2243  -3.2142  -3.1562  -3.1492  -3.1456  -3.1398
    -3.1357  -3.1339  -3.1258  -3.0944  -3.0938  -3.0760  -3.0407  -3.0382
    -2.9597  -2.9559  -2.9523  -2.9509  -2.9230  -2.9212  -2.9209  -2.9194
    -2.8831  -2.8809  -2.8778  -2.8769  -2.8751  -2.8708  -2.8575  -2.8564
    -2.8117  -2.8094  -2.7863  -2.7838  -2.7717  -2.7699  -2.7684  -2.7680
    -2.7394  -2.7385  -2.7303  -2.7256  -2.7200  -2.7026  -2.6992  -2.6891
    -2.6865  -2.6499  -2.6440  -2.6438  -2.6391  -2.6039  -2.5576  -2.5050
    -2.5029  -2.5027  -2.4943  -2.0190  -1.9970  -0.8878  -0.8828  -0.8816
    -0.8768  -0.7453  -0.7406  -0.7152  -0.6701  -0.2409  -0.2182  -0.1952
    -0.0668

          k = 0.0489-0.0282 0.0000 ( 78550 PWs)   bands (ev):

  -113.5173-113.4786-113.4665-113.4643-113.4627-113.4615-113.4601-113.4592
  -113.4587-113.4577-113.4574-113.4565-113.4562-113.4557-113.4553-113.4548
  -113.4541-113.4539-113.4534-113.4530-113.4528-113.4523-113.4514-113.4511
  -113.4509-113.4503-113.4502-113.4497-113.4489-113.4483-113.4471-113.4467
   -70.9508 -70.9491 -70.9293 -70.9255 -70.9250 -70.9244 -70.9215 -70.9201
   -70.9189 -70.9176 -70.9173 -70.9169 -70.9159 -70.9124 -70.9120 -70.9108
   -70.9098 -70.9073 -70.9060 -70.9056 -70.9031 -70.9021 -70.9017 -70.9004
   -70.8976 -70.8961 -70.8887 -70.8869 -70.8858 -70.8834 -70.8801 -70.8796
   -70.8779 -70.8776 -70.8763 -70.8758 -70.8731 -70.8718 -70.8706 -70.8702
   -70.8690 -70.8688 -70.8681 -70.8674 -70.8660 -70.8646 -70.8642 -70.8631
   -70.8616 -70.8603 -70.8595 -70.8589 -70.8586 -70.8572 -70.8569 -70.8558
   -70.8545 -70.8537 -70.8533 -70.8521 -70.8506 -70.8487 -70.8485 -70.8439
   -70.8412 -70.8228 -70.8212 -70.8176 -70.8134 -70.8105 -70.8056 -70.8050
   -70.8035 -70.8024 -70.8003 -70.7965 -70.7963 -70.7940 -70.7919 -70.7891
   -70.7866 -70.7818 -70.7804 -70.7775 -70.7773 -70.7768 -70.7762 -70.7752
   -70.7739 -70.7732 -70.7720 -70.7711 -70.7705 -70.7697 -70.7689 -70.7672
   -26.3241 -24.7050 -22.3510 -17.0143 -15.3677 -13.5578 -11.0697 -10.0659
    -9.4851  -9.4592  -9.1163  -8.6957  -8.6841  -8.5826  -8.4410  -7.9118
    -7.7753  -7.7648  -7.2253  -7.1189  -6.4934  -6.3260  -6.3190  -6.3157
    -6.2973  -6.2184  -6.1723  -6.0828  -6.0544  -5.9977  -5.9909  -5.4619
    -5.4589  -5.4536  -5.4517  -5.3898  -5.3720  -5.3239  -5.2092  -5.2027
    -5.1486  -5.1458  -5.1435  -5.1409  -4.9879  -4.9820  -4.9000  -4.8958
    -4.8903  -4.8843  -4.8841  -4.8806  -4.8796  -4.8778  -4.8623  -4.8576
    -4.8339  -4.8254  -4.7544  -4.6956  -4.6880  -4.6444  -4.6425  -4.6376
    -4.6245  -4.3250  -4.2992  -4.2834  -4.2401  -4.2125  -4.1080  -4.1026
    -4.0987  -4.0954  -4.0946  -4.0935  -4.0932  -4.0921  -4.0896  -4.0850
    -4.0838  -4.0761  -4.0720  -4.0666  -4.0531  -4.0485  -4.0448  -4.0382
    -4.0369  -4.0079  -4.0023  -3.9884  -3.9729  -3.9561  -3.9298  -3.9223
    -3.8648  -3.8618  -3.8558  -3.8374  -3.7953  -3.7852  -3.7471  -3.7399
    -3.7377  -3.7342  -3.7332  -3.7324  -3.7322  -3.7291  -3.7268  -3.7025
    -3.6778  -3.6699  -3.5598  -3.5473  -3.5382  -3.5353  -3.5328  -3.5303
    -3.5121  -3.5009  -3.4990  -3.4909  -3.4729  -3.4692  -3.4677  -3.4665
    -3.4606  -3.4446  -3.3553  -3.3484  -3.3219  -3.3175  -3.3155  -3.3137
    -3.2959  -3.2787  -3.2231  -3.2105  -3.1554  -3.1493  -3.1474  -3.1391
    -3.1347  -3.1339  -3.1250  -3.0949  -3.0905  -3.0804  -3.0435  -3.0323
    -2.9570  -2.9549  -2.9535  -2.9514  -2.9238  -2.9228  -2.9192  -2.9188
    -2.8815  -2.8804  -2.8784  -2.8772  -2.8743  -2.8719  -2.8596  -2.8560
    -2.8137  -2.8095  -2.7882  -2.7835  -2.7722  -2.7696  -2.7683  -2.7643
    -2.7418  -2.7367  -2.7288  -2.7268  -2.7151  -2.7032  -2.6990  -2.6881
    -2.6870  -2.6484  -2.6453  -2.6426  -2.6424  -2.6031  -2.5630  -2.5055
    -2.5050  -2.5012  -2.4939  -2.0309  -1.9811  -0.8885  -0.8829  -0.8811
    -0.8784  -0.7538  -0.7336  -0.7134  -0.6734  -0.2236  -0.2177  -0.1909
    -0.0983

          k =-0.0489-0.0282 0.0000 ( 78550 PWs)   bands (ev):

  -113.5173-113.4786-113.4665-113.4643-113.4626-113.4615-113.4601-113.4593
  -113.4587-113.4577-113.4574-113.4565-113.4562-113.4556-113.4553-113.4547
  -113.4541-113.4539-113.4534-113.4530-113.4527-113.4523-113.4514-113.4511
  -113.4509-113.4504-113.4502-113.4497-113.4489-113.4483-113.4471-113.4467
   -70.9508 -70.9491 -70.9293 -70.9255 -70.9250 -70.9244 -70.9216 -70.9202
   -70.9189 -70.9176 -70.9173 -70.9169 -70.9159 -70.9124 -70.9120 -70.9108
   -70.9098 -70.9072 -70.9060 -70.9056 -70.9031 -70.9021 -70.9017 -70.9004
   -70.8976 -70.8961 -70.8887 -70.8868 -70.8859 -70.8834 -70.8801 -70.8795
   -70.8779 -70.8775 -70.8763 -70.8758 -70.8731 -70.8718 -70.8706 -70.8702
   -70.8690 -70.8688 -70.8680 -70.8674 -70.8660 -70.8646 -70.8642 -70.8631
   -70.8617 -70.8603 -70.8595 -70.8589 -70.8586 -70.8572 -70.8568 -70.8558
   -70.8545 -70.8537 -70.8533 -70.8521 -70.8506 -70.8487 -70.8485 -70.8439
   -70.8412 -70.8228 -70.8212 -70.8177 -70.8134 -70.8105 -70.8056 -70.8050
   -70.8036 -70.8024 -70.8003 -70.7964 -70.7964 -70.7939 -70.7919 -70.7892
   -70.7866 -70.7818 -70.7804 -70.7775 -70.7773 -70.7769 -70.7762 -70.7751
   -70.7739 -70.7732 -70.7720 -70.7710 -70.7705 -70.7698 -70.7689 -70.7672
   -26.3241 -24.7050 -22.3510 -17.0143 -15.3677 -13.5578 -11.0697 -10.0659
    -9.4850  -9.4593  -9.1163  -8.6957  -8.6840  -8.5826  -8.4410  -7.9118
    -7.7754  -7.7648  -7.2253  -7.1187  -6.4933  -6.3260  -6.3190  -6.3157
    -6.2975  -6.2184  -6.1721  -6.0827  -6.0547  -5.9975  -5.9910  -5.4622
    -5.4589  -5.4538  -5.4516  -5.3904  -5.3713  -5.3234  -5.2094  -5.2029
    -5.1486  -5.1458  -5.1434  -5.1410  -4.9879  -4.9820  -4.9001  -4.8957
    -4.8904  -4.8845  -4.8841  -4.8806  -4.8795  -4.8778  -4.8624  -4.8573
    -4.8335  -4.8255  -4.7549  -4.6955  -4.6880  -4.6444  -4.6423  -4.6377
    -4.6239  -4.3251  -4.2992  -4.2835  -4.2401  -4.2127  -4.1080  -4.1026
    -4.0987  -4.0954  -4.0946  -4.0936  -4.0932  -4.0921  -4.0895  -4.0850
    -4.0837  -4.0762  -4.0720  -4.0666  -4.0532  -4.0485  -4.0448  -4.0382
    -4.0369  -4.0079  -4.0026  -3.9881  -3.9729  -3.9560  -3.9298  -3.9224
    -3.8647  -3.8618  -3.8559  -3.8373  -3.7953  -3.7852  -3.7471  -3.7399
    -3.7377  -3.7342  -3.7332  -3.7324  -3.7322  -3.7291  -3.7268  -3.7027
    -3.6778  -3.6699  -3.5598  -3.5473  -3.5382  -3.5352  -3.5328  -3.5303
    -3.5120  -3.5009  -3.4990  -3.4908  -3.4729  -3.4692  -3.4676  -3.4665
    -3.4606  -3.4446  -3.3553  -3.3484  -3.3218  -3.3175  -3.3155  -3.3138
    -3.2959  -3.2789  -3.2231  -3.2104  -3.1554  -3.1493  -3.1474  -3.1391
    -3.1348  -3.1339  -3.1250  -3.0949  -3.0906  -3.0803  -3.0434  -3.0323
    -2.9570  -2.9549  -2.9536  -2.9514  -2.9238  -2.9228  -2.9192  -2.9188
    -2.8815  -2.8804  -2.8784  -2.8771  -2.8744  -2.8720  -2.8596  -2.8560
    -2.8137  -2.8095  -2.7882  -2.7835  -2.7721  -2.7696  -2.7683  -2.7643
    -2.7418  -2.7367  -2.7287  -2.7268  -2.7153  -2.7032  -2.6990  -2.6881
    -2.6870  -2.6483  -2.6453  -2.6427  -2.6424  -2.6028  -2.5630  -2.5055
    -2.5051  -2.5012  -2.4939  -2.0307  -1.9813  -0.8885  -0.8829  -0.8812
    -0.8785  -0.7537  -0.7335  -0.7138  -0.6736  -0.2231  -0.2177  -0.1906
    -0.0986

     the Fermi energy is    -0.9506 ev

!    total energy              =  -13083.50999075 Ry
     Harris-Foulkes estimate   =  -13083.50999196 Ry
     estimated scf accuracy    <       0.00000047 Ry

     The total energy is the sum of the following terms:

     one-electron contribution = -113594.10852182 Ry
     hartree contribution      =   56795.68282712 Ry
     xc contribution           =   -1286.22411773 Ry
     ewald contribution        =   45001.20048101 Ry
     smearing contrib. (-TS)   =      -0.06065933 Ry

     convergence has been achieved in  24 iterations

     Forces acting on atoms (Ry/au):


     negative rho (up, down):  4.195E-03 0.000E+00
     atom    1 type  1   force =    -0.00005663   -0.00006437   -0.00042863
     atom    2 type  1   force =    -0.00053331   -0.00036183   -0.00023341
     atom    3 type  1   force =    -0.00000133    0.00005025   -0.00053475
     atom    4 type  1   force =    -0.00064361   -0.00007196    0.00030414
     atom    5 type  1   force =    -0.00015682   -0.00017097   -0.00042803
     atom    6 type  1   force =     0.00000035    0.00011707   -0.00034835
     atom    7 type  1   force =     0.00007517    0.00011021   -0.00021881
     atom    8 type  1   force =    -0.00076871   -0.00114873    0.00067969
     atom    9 type  1   force =    -0.00143500   -0.00056409   -0.00295649
     atom   10 type  1   force =     0.00001159   -0.00065855   -0.00278304
     atom   11 type  1   force =    -0.00011773   -0.00023095   -0.00049890
     atom   12 type  1   force =     0.00048547   -0.00047936    0.00167266
     atom   13 type  1   force =     0.00015589   -0.00017089   -0.00041894
     atom   14 type  1   force =    -0.00037948    0.00062002    0.00037896
     atom   15 type  1   force =    -0.00000113    0.00014025   -0.00015908
     atom   16 type  1   force =     0.00076992   -0.00114350    0.00068160
     atom   17 type  1   force =     0.00143646   -0.00056666   -0.00295831
     atom   18 type  1   force =     0.00054063   -0.00036564   -0.00023551
     atom   19 type  1   force =    -0.00000455    0.00092909   -0.00038587
     atom   20 type  1   force =    -0.00050291   -0.00050120    0.00170055
     atom   21 type  1   force =     0.00013943    0.00005224   -0.00061721
     atom   22 type  1   force =     0.00000225    0.00073874   -0.00056969
     atom   23 type  1   force =    -0.00007699    0.00011088   -0.00023098
     atom   24 type  1   force =    -0.00018287    0.00007567    0.00016149
     atom   25 type  1   force =     0.00005751   -0.00006263   -0.00043966
     atom   26 type  1   force =    -0.00000134    0.00013277    0.00013778
     atom   27 type  1   force =     0.00012040   -0.00023016   -0.00050236
     atom   28 type  1   force =     0.00063254   -0.00007611    0.00030643
     atom   29 type  1   force =    -0.00013951    0.00005493   -0.00061431
     atom   30 type  1   force =     0.00037376    0.00061103    0.00037718
     atom   31 type  1   force =     0.00000230    0.00028444   -0.00089744
     atom   32 type  1   force =     0.00018178    0.00007389    0.00016813
     atom   33 type  2   force =     0.00785049    0.29542452   -0.36614474
     atom   34 type  2   force =     0.00078342   -0.07996981    0.03240636
     atom   35 type  2   force =     0.01290737   -0.53038421    0.54256750
     atom   36 type  3   force =     0.00152867   -0.02980795    0.13684451
     atom   37 type  3   force =     0.00007613    0.03805562   -0.09853027
     atom   38 type  3   force =    -0.00650803   -0.29757273    0.34316970
     atom   39 type  3   force =    -0.00430457   -0.05506993    0.05260297
     atom   40 type  3   force =    -0.01386843    0.53937450   -0.57772551
     atom   41 type  4   force =    -0.03308292    0.02348165   -0.02150735
     atom   42 type  4   force =     0.03122142    0.02265670   -0.02082630
     atom   43 type  4   force =    -0.02971567   -0.02535782    0.01621367
     atom   44 type  4   force =     0.02955738   -0.02574958    0.01552963
     atom   45 type  4   force =     0.03207159    0.01506361   -0.02171086
     atom   46 type  4   force =    -0.02876166    0.01479711   -0.02267263
     atom   47 type  4   force =     0.00039417    0.03000223    0.00348162
     atom   48 type  4   force =    -0.00013289    0.06782222   -0.00380713

     Total force =     1.299613     Total SCF correction =     0.005226
 !ASE

     Writing output data file calc.save
     Check: negative starting charge=   -0.009892
     NEW-OLD atomic charge density approx. for the potential
     Check: negative starting charge=   -0.009953

     negative rho (up, down):  4.831E-03 0.000E+00

     total cpu time spent up to now is     9859.1 secs

     per-process dynamical memory:   403.9 Mb

     Self-consistent Calculation

     iteration #  1     ecut=    40.42 Ry     beta=0.20
     Davidson diagonalization with overlap
     ethr =  1.18E-10,  avg # of iterations = 14.2

     negative rho (up, down):  4.749E-03 0.000E+00

     total cpu time spent up to now is    10284.1 secs

     total energy              =  -13083.67699678 Ry
     Harris-Foulkes estimate   =  -13083.68354377 Ry
     estimated scf accuracy    <       0.06010132 Ry

     iteration #  2     ecut=    40.42 Ry     beta=0.20
     Davidson diagonalization with overlap
     ethr =  9.19E-06,  avg # of iterations =  1.2

     negative rho (up, down):  1.020E-02 0.000E+00

     total cpu time spent up to now is    10409.9 secs

     total energy              =  -13083.65828921 Ry
     Harris-Foulkes estimate   =  -13083.67724388 Ry
     estimated scf accuracy    <       0.04246310 Ry

     iteration #  3     ecut=    40.42 Ry     beta=0.20
     Davidson diagonalization with overlap
     ethr =  6.49E-06,  avg # of iterations =  3.0

     negative rho (up, down):  8.986E-03 0.000E+00

     total cpu time spent up to now is    10551.3 secs

     total energy              =  -13083.66309327 Ry
     Harris-Foulkes estimate   =  -13083.66375243 Ry
     estimated scf accuracy    <       0.00518268 Ry

     iteration #  4     ecut=    40.42 Ry     beta=0.20
     Davidson diagonalization with overlap
     ethr =  7.92E-07,  avg # of iterations =  4.0

     negative rho (up, down):  9.542E-03 0.000E+00

     total cpu time spent up to now is    10686.8 secs

     total energy              =  -13083.66283544 Ry
     Harris-Foulkes estimate   =  -13083.66335586 Ry
     estimated scf accuracy    <       0.00298238 Ry

     iteration #  5     ecut=    40.42 Ry     beta=0.20
     Davidson diagonalization with overlap
     ethr =  4.56E-07,  avg # of iterations =  4.0

     negative rho (up, down):  8.997E-03 0.000E+00

     total cpu time spent up to now is    10819.7 secs

     total energy              =  -13083.66268824 Ry
     Harris-Foulkes estimate   =  -13083.66298567 Ry
     estimated scf accuracy    <       0.00186759 Ry

     iteration #  6     ecut=    40.42 Ry     beta=0.20
     Davidson diagonalization with overlap
     ethr =  2.86E-07,  avg # of iterations =  3.0

     negative rho (up, down):  8.764E-03 0.000E+00

     total cpu time spent up to now is    10955.8 secs

     total energy              =  -13083.66268705 Ry
     Harris-Foulkes estimate   =  -13083.66279522 Ry
     estimated scf accuracy    <       0.00126929 Ry

     iteration #  7     ecut=    40.42 Ry     beta=0.20
     Davidson diagonalization with overlap
     ethr =  1.94E-07,  avg # of iterations =  3.0

     negative rho (up, down):  8.444E-03 0.000E+00

     total cpu time spent up to now is    11082.2 secs

[...]
    -2.9509  -2.9451  -2.9287  -2.8663  -2.8659  -2.8605  -2.8604  -2.8365
    -2.8342  -2.8328  -2.8036  -2.8034  -2.7727  -2.7724  -2.7531  -2.7530
    -2.7492  -2.7490  -2.6856  -2.6650  -2.6649  -2.6420  -2.6272  -2.3501
    -2.0796  -2.0700  -1.9358  -1.9350  -1.7643  -1.5111  -1.5015  -1.2333
    -0.9751  -0.9750  -0.9277  -0.9214  -0.9163   0.1496   0.1582   0.3269
     0.3283

          k = 0.0489-0.0282 0.0000 ( 78550 PWs)   bands (ev):

  -113.5552-113.5538-113.5518-113.5517-113.5489-113.5485-113.5482-113.5477
  -113.5474-113.5470-113.5469-113.5460-113.5457-113.5453-113.5451-113.5446
  -113.5442-113.5439-113.5438-113.5435-113.5428-113.5425-113.5424-113.5423
  -113.5421-113.5419-113.5415-113.5412-113.5411-113.5401-113.5391-113.5383
   -71.0170 -71.0168 -71.0156 -71.0155 -71.0114 -71.0102 -71.0098 -71.0095
   -71.0085 -71.0084 -71.0082 -71.0080 -71.0039 -71.0028 -71.0011 -71.0009
   -70.9969 -70.9968 -70.9964 -70.9963 -70.9921 -70.9920 -70.9916 -70.9915
   -70.9866 -70.9865 -70.9763 -70.9762 -70.9701 -70.9700 -70.9692 -70.9689
   -70.9678 -70.9677 -70.9659 -70.9659 -70.9601 -70.9600 -70.9599 -70.9596
   -70.9592 -70.9581 -70.9574 -70.9572 -70.9561 -70.9560 -70.9522 -70.9510
   -70.9503 -70.9502 -70.9499 -70.9497 -70.9482 -70.9479 -70.9474 -70.9461
   -70.9446 -70.9435 -70.9430 -70.9419 -70.9401 -70.9400 -70.9341 -70.9329
   -70.9114 -70.9099 -70.9042 -70.9040 -70.8949 -70.8943 -70.8942 -70.8934
   -70.8915 -70.8900 -70.8860 -70.8858 -70.8840 -70.8837 -70.8785 -70.8782
   -70.8715 -70.8712 -70.8684 -70.8680 -70.8667 -70.8662 -70.8649 -70.8646
   -70.8636 -70.8629 -70.8625 -70.8623 -70.8604 -70.8604 -70.8596 -70.8585
   -24.5453 -22.8795 -22.2492 -16.8814 -15.5103 -13.9129 -11.6295  -9.9313
    -9.1169  -8.9788  -8.7903  -8.7862  -8.6318  -7.9663  -7.8693  -7.8670
    -7.8429  -7.5975  -6.9724  -6.5753  -6.4130  -6.4128  -6.4125  -6.4113
    -6.1824  -6.1787  -6.0886  -6.0873  -6.0655  -6.0008  -5.7379  -5.5463
    -5.5463  -5.5458  -5.5456  -5.4751  -5.4729  -5.3935  -5.2972  -5.2969
    -5.2343  -5.2340  -5.2337  -5.2336  -5.0715  -5.0714  -4.9748  -4.9746
    -4.9743  -4.9740  -4.9721  -4.9719  -4.9709  -4.9707  -4.9448  -4.9435
    -4.9138  -4.9137  -4.7793  -4.7793  -4.7289  -4.7276  -4.7271  -4.7268
    -4.6717  -4.3849  -4.3847  -4.3276  -4.3265  -4.1917  -4.1914  -4.1901
    -4.1900  -4.1896  -4.1893  -4.1891  -4.1889  -4.1873  -4.1856  -4.1766
    -4.1763  -4.1653  -4.1650  -4.1409  -4.1403  -4.1393  -4.1388  -4.1294
    -4.1292  -4.0916  -4.0911  -4.0653  -4.0650  -4.0231  -4.0229  -3.9557
    -3.9551  -3.9547  -3.9540  -3.8841  -3.8835  -3.8277  -3.8272  -3.8272
    -3.8257  -3.8254  -3.8246  -3.8205  -3.8204  -3.8192  -3.8191  -3.7636
    -3.7626  -3.6369  -3.6355  -3.6239  -3.6238  -3.6235  -3.6232  -3.6065
    -3.6016  -3.5877  -3.5868  -3.5617  -3.5607  -3.5606  -3.5598  -3.5541
    -3.5529  -3.4478  -3.4421  -3.4371  -3.4120  -3.4112  -3.4108  -3.4080
    -3.3886  -3.3761  -3.3194  -3.3162  -3.2424  -3.2413  -3.2363  -3.2357
    -3.2348  -3.2326  -3.2205  -3.2136  -3.1911  -3.1911  -3.1362  -3.1352
    -3.0473  -3.0472  -3.0471  -3.0469  -3.0177  -3.0175  -3.0163  -3.0163
    -2.9725  -2.9722  -2.9712  -2.9710  -2.9706  -2.9703  -2.9536  -2.9532
    -2.9074  -2.9067  -2.8796  -2.8794  -2.8640  -2.8638  -2.8631  -2.8628
    -2.8345  -2.8333  -2.8257  -2.8247  -2.7931  -2.7923  -2.7826  -2.7817
    -2.7394  -2.7390  -2.7375  -2.7372  -2.7028  -2.6980  -2.6235  -2.5968
    -2.5965  -2.5964  -2.5963  -2.1308  -2.1209  -0.9815  -0.9812  -0.9793
    -0.9792  -0.8413  -0.8387  -0.8341  -0.8271  -0.3292  -0.3265  -0.2946
    -0.2660

          k =-0.0489-0.0282 0.0000 ( 78550 PWs)   bands (ev):

  -113.5552-113.5539-113.5518-113.5516-113.5489-113.5486-113.5482-113.5477
  -113.5474-113.5471-113.5468-113.5460-113.5457-113.5452-113.5451-113.5446
  -113.5441-113.5440-113.5438-113.5434-113.5429-113.5425-113.5424-113.5422
  -113.5420-113.5419-113.5416-113.5411-113.5410-113.5401-113.5391-113.5383
   -71.0169 -71.0167 -71.0157 -71.0156 -71.0114 -71.0103 -71.0097 -71.0094
   -71.0086 -71.0084 -71.0082 -71.0080 -71.0038 -71.0029 -71.0011 -71.0009
   -70.9969 -70.9968 -70.9964 -70.9963 -70.9921 -70.9920 -70.9916 -70.9915
   -70.9866 -70.9865 -70.9764 -70.9762 -70.9701 -70.9700 -70.9692 -70.9689
   -70.9679 -70.9678 -70.9659 -70.9659 -70.9602 -70.9600 -70.9599 -70.9596
   -70.9592 -70.9581 -70.9573 -70.9572 -70.9561 -70.9561 -70.9522 -70.9511
   -70.9503 -70.9501 -70.9499 -70.9497 -70.9482 -70.9479 -70.9473 -70.9462
   -70.9446 -70.9436 -70.9430 -70.9419 -70.9401 -70.9399 -70.9340 -70.9329
   -70.9114 -70.9100 -70.9042 -70.9040 -70.8948 -70.8944 -70.8942 -70.8935
   -70.8914 -70.8901 -70.8860 -70.8856 -70.8841 -70.8838 -70.8784 -70.8782
   -70.8715 -70.8712 -70.8683 -70.8680 -70.8667 -70.8663 -70.8649 -70.8647
   -70.8636 -70.8629 -70.8624 -70.8622 -70.8606 -70.8604 -70.8595 -70.8585
   -24.5453 -22.8795 -22.2492 -16.8814 -15.5103 -13.9129 -11.6295  -9.9312
    -9.1170  -8.9789  -8.7903  -8.7861  -8.6318  -7.9662  -7.8692  -7.8670
    -7.8432  -7.5975  -6.9725  -6.5750  -6.4130  -6.4128  -6.4125  -6.4113
    -6.1824  -6.1787  -6.0886  -6.0873  -6.0656  -6.0008  -5.7380  -5.5463
    -5.5463  -5.5458  -5.5457  -5.4751  -5.4729  -5.3936  -5.2972  -5.2969
    -5.2343  -5.2340  -5.2337  -5.2337  -5.0715  -5.0714  -4.9747  -4.9745
    -4.9744  -4.9741  -4.9720  -4.9718  -4.9709  -4.9707  -4.9448  -4.9436
    -4.9137  -4.9137  -4.7794  -4.7793  -4.7289  -4.7276  -4.7271  -4.7269
    -4.6715  -4.3849  -4.3848  -4.3275  -4.3266  -4.1917  -4.1913  -4.1902
    -4.1901  -4.1895  -4.1893  -4.1891  -4.1890  -4.1872  -4.1856  -4.1766
    -4.1763  -4.1653  -4.1651  -4.1409  -4.1402  -4.1393  -4.1389  -4.1294
    -4.1292  -4.0916  -4.0911  -4.0653  -4.0650  -4.0231  -4.0230  -3.9557
    -3.9551  -3.9546  -3.9542  -3.8840  -3.8835  -3.8277  -3.8273  -3.8271
    -3.8258  -3.8254  -3.8246  -3.8205  -3.8203  -3.8193  -3.8191  -3.7636
    -3.7627  -3.6368  -3.6356  -3.6239  -3.6238  -3.6235  -3.6232  -3.6066
    -3.6015  -3.5877  -3.5868  -3.5618  -3.5607  -3.5606  -3.5599  -3.5539
    -3.5530  -3.4479  -3.4421  -3.4372  -3.4119  -3.4112  -3.4108  -3.4080
    -3.3886  -3.3763  -3.3192  -3.3163  -3.2424  -3.2413  -3.2362  -3.2357
    -3.2349  -3.2327  -3.2203  -3.2136  -3.1911  -3.1911  -3.1362  -3.1352
    -3.0473  -3.0472  -3.0471  -3.0469  -3.0176  -3.0174  -3.0164  -3.0163
    -2.9724  -2.9722  -2.9712  -2.9710  -2.9707  -2.9704  -2.9535  -2.9532
    -2.9074  -2.9067  -2.8796  -2.8794  -2.8640  -2.8637  -2.8631  -2.8628
    -2.8345  -2.8333  -2.8256  -2.8247  -2.7930  -2.7923  -2.7826  -2.7818
    -2.7393  -2.7389  -2.7376  -2.7374  -2.7024  -2.6982  -2.6235  -2.5967
    -2.5965  -2.5963  -2.5963  -2.1306  -2.1211  -0.9814  -0.9811  -0.9794
    -0.9794  -0.8410  -0.8387  -0.8343  -0.8273  -0.3288  -0.3263  -0.2933
    -0.2678

          k =-0.0245 0.0424 0.0000 ( 78586 PWs)   bands (ev):

  -113.5552-113.5537-113.5527-113.5502-113.5497-113.5486-113.5481-113.5479
  -113.5474-113.5471-113.5467-113.5460-113.5456-113.5453-113.5449-113.5447
  -113.5443-113.5440-113.5436-113.5432-113.5430-113.5427-113.5425-113.5423
  -113.5420-113.5417-113.5415-113.5411-113.5411-113.5402-113.5392-113.5383
   -71.0190 -71.0154 -71.0151 -71.0139 -71.0135 -71.0115 -71.0089 -71.0081
   -71.0079 -71.0077 -71.0067 -71.0062 -71.0042 -71.0036 -71.0029 -71.0025
   -71.0016 -70.9978 -70.9971 -70.9966 -70.9920 -70.9917 -70.9910 -70.9834
   -70.9830 -70.9824 -70.9794 -70.9794 -70.9773 -70.9769 -70.9697 -70.9664
   -70.9660 -70.9654 -70.9645 -70.9623 -70.9620 -70.9603 -70.9593 -70.9592
   -70.9588 -70.9582 -70.9577 -70.9547 -70.9542 -70.9540 -70.9535 -70.9533
   -70.9528 -70.9519 -70.9500 -70.9498 -70.9482 -70.9474 -70.9468 -70.9454
   -70.9450 -70.9445 -70.9439 -70.9427 -70.9397 -70.9360 -70.9358 -70.9330
   -70.9118 -70.9086 -70.9073 -70.8997 -70.8991 -70.8947 -70.8936 -70.8923
   -70.8898 -70.8889 -70.8880 -70.8875 -70.8833 -70.8818 -70.8808 -70.8766
   -70.8726 -70.8699 -70.8690 -70.8681 -70.8665 -70.8657 -70.8655 -70.8643
   -70.8642 -70.8627 -70.8624 -70.8620 -70.8610 -70.8602 -70.8595 -70.8585
   -24.5453 -22.8795 -22.2492 -16.8814 -15.5103 -13.9129 -11.6295  -9.9313
    -9.1170  -8.9789  -8.9080  -8.6361  -8.4318  -8.4293  -7.9658  -7.8457
    -7.5980  -7.1508  -7.1504  -6.9726  -6.5746  -6.4561  -6.2863  -6.2854
    -6.2790  -6.0727  -6.0017  -5.8940  -5.8882  -5.8539  -5.8538  -5.8337
    -5.8337  -5.7379  -5.3937  -5.3816  -5.3633  -5.3071  -5.3069  -5.2620
    -5.2616  -5.1868  -5.1867  -5.1019  -5.1018  -5.0936  -5.0932  -5.0664
    -5.0660  -5.0120  -5.0050  -4.9887  -4.9885  -4.8916  -4.8915  -4.8755
    -4.8745  -4.8495  -4.8489  -4.7852  -4.7609  -4.7356  -4.6740  -4.6581
    -4.5487  -4.5483  -4.4598  -4.4073  -4.4066  -4.2541  -4.2537  -4.2307
    -4.2087  -4.2081  -4.2065  -4.2064  -4.2023  -4.1922  -4.1917  -4.1609
    -4.1592  -4.1581  -4.1482  -4.1477  -4.1390  -4.1382  -4.1264  -4.0828
    -4.0822  -4.0643  -4.0485  -4.0371  -4.0017  -3.9659  -3.9654  -3.9581
    -3.9527  -3.9271  -3.9265  -3.8586  -3.8550  -3.8546  -3.8312  -3.8000
    -3.7992  -3.7972  -3.7960  -3.7956  -3.7404  -3.7388  -3.7006  -3.7006
    -3.6971  -3.6957  -3.6941  -3.6935  -3.6694  -3.6688  -3.6602  -3.6349
    -3.6337  -3.6311  -3.6300  -3.6009  -3.6005  -3.5777  -3.5772  -3.5572
    -3.5349  -3.5335  -3.5013  -3.5007  -3.4704  -3.4355  -3.3901  -3.3785
    -3.3531  -3.2915  -3.2889  -3.2792  -3.2781  -3.2736  -3.2253  -3.2103
    -3.2004  -3.2003  -3.1891  -3.1875  -3.1789  -3.1776  -3.1390  -3.1387
    -3.1112  -3.1104  -3.0982  -3.0859  -3.0207  -3.0174  -3.0161  -3.0040
    -3.0033  -2.9719  -2.9717  -2.9715  -2.9713  -2.9710  -2.9541  -2.9530
    -2.9170  -2.9167  -2.9135  -2.9132  -2.8901  -2.8868  -2.8734  -2.8700
    -2.8695  -2.8305  -2.8296  -2.8210  -2.8134  -2.8126  -2.7982  -2.7661
    -2.7660  -2.7512  -2.7290  -2.7289  -2.6800  -2.6790  -2.6278  -2.5677
    -2.4758  -2.4657  -2.0359  -2.0355  -1.9852  -1.9845  -1.6112  -1.6068
    -0.8754  -0.6868  -0.6782  -0.4782   0.0047   0.1989   0.2016   0.2399
     0.2635

          k = 0.0489-0.0000 0.0000 ( 78586 PWs)   bands (ev):

  -113.5553-113.5533-113.5531-113.5503-113.5496-113.5486-113.5484-113.5479
  -113.5472-113.5469-113.5465-113.5463-113.5457-113.5453-113.5451-113.5446
  -113.5441-113.5440-113.5437-113.5436-113.5427-113.5426-113.5424-113.5423
  -113.5421-113.5418-113.5416-113.5411-113.5410-113.5401-113.5391-113.5383
   -71.0190 -71.0155 -71.0152 -71.0137 -71.0135 -71.0115 -71.0086 -71.0084
   -71.0078 -71.0077 -71.0064 -71.0061 -71.0043 -71.0038 -71.0029 -71.0022
   -71.0020 -70.9979 -70.9970 -70.9966 -70.9920 -70.9917 -70.9910 -70.9834
   -70.9828 -70.9826 -70.9796 -70.9792 -70.9771 -70.9769 -70.9698 -70.9662
   -70.9660 -70.9650 -70.9649 -70.9622 -70.9620 -70.9606 -70.9593 -70.9591
   -70.9587 -70.9584 -70.9576 -70.9548 -70.9541 -70.9540 -70.9534 -70.9532
   -70.9530 -70.9517 -70.9501 -70.9499 -70.9482 -70.9472 -70.9469 -70.9454
   -70.9450 -70.9444 -70.9439 -70.9428 -70.9398 -70.9360 -70.9358 -70.9329
   -70.9118 -70.9080 -70.9078 -70.8997 -70.8991 -70.8946 -70.8930 -70.8928
   -70.8896 -70.8892 -70.8883 -70.8872 -70.8834 -70.8815 -70.8810 -70.8766
   -70.8727 -70.8698 -70.8693 -70.8679 -70.8668 -70.8656 -70.8651 -70.8643
   -70.8642 -70.8630 -70.8627 -70.8616 -70.8608 -70.8603 -70.8595 -70.8585
   -24.5453 -22.8795 -22.2492 -16.8814 -15.5103 -13.9129 -11.6295  -9.9313
    -9.1169  -8.9789  -8.9080  -8.6361  -8.4316  -8.4295  -7.9661  -7.8459
    -7.5982  -7.1508  -7.1503  -6.9724  -6.5746  -6.4558  -6.2860  -6.2857
    -6.2785  -6.0730  -6.0022  -5.8937  -5.8883  -5.8540  -5.8538  -5.8338
    -5.8335  -5.7379  -5.3937  -5.3817  -5.3633  -5.3073  -5.3067  -5.2619
    -5.2618  -5.1868  -5.1868  -5.1018  -5.1018  -5.0934  -5.0933  -5.0665
    -5.0657  -5.0120  -5.0050  -4.9887  -4.9884  -4.8916  -4.8915  -4.8750
    -4.8748  -4.8495  -4.8492  -4.7852  -4.7610  -4.7356  -4.6744  -4.6577
    -4.5490  -4.5484  -4.4592  -4.4080  -4.4063  -4.2540  -4.2538  -4.2306
    -4.2087  -4.2082  -4.2067  -4.2062  -4.2023  -4.1926  -4.1916  -4.1609
    -4.1589  -4.1585  -4.1480  -4.1477  -4.1387  -4.1385  -4.1264  -4.0826
    -4.0824  -4.0643  -4.0485  -4.0371  -4.0016  -3.9657  -3.9655  -3.9581
    -3.9527  -3.9277  -3.9263  -3.8586  -3.8549  -3.8548  -3.8312  -3.7996
    -3.7995  -3.7969  -3.7965  -3.7957  -3.7400  -3.7393  -3.7008  -3.7005
    -3.6963  -3.6960  -3.6939  -3.6937  -3.6693  -3.6690  -3.6601  -3.6347
    -3.6339  -3.6307  -3.6304  -3.6013  -3.6004  -3.5779  -3.5774  -3.5563
    -3.5340  -3.5336  -3.5014  -3.5008  -3.4704  -3.4373  -3.3905  -3.3780
    -3.3526  -3.2923  -3.2870  -3.2797  -3.2777  -3.2739  -3.2253  -3.2107
    -3.2004  -3.2002  -3.1888  -3.1879  -3.1792  -3.1775  -3.1392  -3.1386
    -3.1109  -3.1106  -3.0983  -3.0859  -3.0208  -3.0169  -3.0166  -3.0037
    -3.0036  -2.9718  -2.9717  -2.9716  -2.9714  -2.9707  -2.9536  -2.9535
    -2.9170  -2.9167  -2.9135  -2.9132  -2.8902  -2.8869  -2.8735  -2.8700
    -2.8694  -2.8301  -2.8299  -2.8211  -2.8131  -2.8129  -2.7982  -2.7661
    -2.7661  -2.7513  -2.7290  -2.7289  -2.6796  -2.6794  -2.6277  -2.5677
    -2.4737  -2.4675  -2.0361  -2.0352  -1.9850  -1.9846  -1.6139  -1.6038
    -0.8757  -0.6850  -0.6803  -0.4790   0.0048   0.1990   0.2005   0.2452
     0.2605

     the Fermi energy is    -1.3013 ev

!    total energy              =  -13083.74550671 Ry
     Harris-Foulkes estimate   =  -13083.74550678 Ry
     estimated scf accuracy    <       0.00000036 Ry

     The total energy is the sum of the following terms:

     one-electron contribution = -112264.95065789 Ry
     hartree contribution      =   56129.32241871 Ry
     xc contribution           =   -1285.99733767 Ry
     ewald contribution        =   44337.89819861 Ry
     smearing contrib. (-TS)   =      -0.01812846 Ry

     convergence has been achieved in   7 iterations

     Forces acting on atoms (Ry/au):


     negative rho (up, down):  4.124E-03 0.000E+00
     atom    1 type  1   force =    -0.00005284   -0.00002084   -0.00072766
     atom    2 type  1   force =     0.00001635   -0.00006027    0.00065192
     atom    3 type  1   force =    -0.00000978   -0.00003997   -0.00084770
     atom    4 type  1   force =     0.00000429    0.00007726    0.00078962
     atom    5 type  1   force =    -0.00003864   -0.00003155   -0.00086253
     atom    6 type  1   force =     0.00000800    0.00002186    0.00083950
     atom    7 type  1   force =    -0.00006914   -0.00001335   -0.00081715
     atom    8 type  1   force =     0.00014882    0.00007089    0.00083664
     atom    9 type  1   force =    -0.00002854    0.00010361   -0.00086805
     atom   10 type  1   force =     0.00004102   -0.00041659    0.00039429
     atom   11 type  1   force =     0.00006873   -0.00002472   -0.00077682
     atom   12 type  1   force =    -0.00026444    0.00022586    0.00089457
     atom   13 type  1   force =     0.00003900   -0.00001611   -0.00086449
     atom   14 type  1   force =    -0.00000436   -0.00006370    0.00079481
     atom   15 type  1   force =     0.00001127   -0.00000889   -0.00095244
     atom   16 type  1   force =    -0.00011380    0.00007484    0.00084547
     atom   17 type  1   force =     0.00004237    0.00009200   -0.00086394
     atom   18 type  1   force =    -0.00003494   -0.00005505    0.00068371
     atom   19 type  1   force =     0.00000211    0.00003039   -0.00063811
     atom   20 type  1   force =     0.00029547    0.00020345    0.00085451
     atom   21 type  1   force =     0.00007770   -0.00001215   -0.00076662
     atom   22 type  1   force =    -0.00000672   -0.00008271    0.00082615
     atom   23 type  1   force =     0.00006767   -0.00000053   -0.00080788
     atom   24 type  1   force =    -0.00012704   -0.00003931    0.00109120
     atom   25 type  1   force =     0.00003006   -0.00002554   -0.00072428
     atom   26 type  1   force =    -0.00002633    0.00010248    0.00076646
     atom   27 type  1   force =    -0.00006617   -0.00003732   -0.00079555
     atom   28 type  1   force =    -0.00003440    0.00005734    0.00078127
     atom   29 type  1   force =    -0.00008676   -0.00002052   -0.00078344
     atom   30 type  1   force =    -0.00000187   -0.00010428    0.00081172
     atom   31 type  1   force =    -0.00001390    0.00000124   -0.00064302
     atom   32 type  1   force =     0.00008696   -0.00004947    0.00110001
     atom   33 type  2   force =     0.00035285    0.00041986   -0.00170881
     atom   34 type  2   force =    -0.00034876    0.00082461   -0.00008139
     atom   35 type  2   force =     0.00018787   -0.00001968    0.00077311
     atom   36 type  3   force =    -0.00049381    0.00030941    0.00175171
     atom   37 type  3   force =    -0.00070326   -0.00035988   -0.00173870
     atom   38 type  3   force =     0.00037377   -0.00065841    0.00021692
     atom   39 type  3   force =     0.00082045   -0.00022269    0.00096954
     atom   40 type  3   force =    -0.00051516    0.00164223   -0.00005148
     atom   41 type  4   force =    -0.00051681   -0.00000021   -0.00069711
     atom   42 type  4   force =     0.00086106   -0.00021686   -0.00013899
     atom   43 type  4   force =    -0.00051470   -0.00052494    0.00063001
     atom   44 type  4   force =     0.00093255   -0.00009145    0.00030779
     atom   45 type  4   force =    -0.00128223    0.00008151    0.00075131
     atom   46 type  4   force =     0.00026548   -0.00000371   -0.00013356
     atom   47 type  4   force =    -0.00008248   -0.00022520   -0.00102502
     atom   48 type  4   force =     0.00070303   -0.00089293   -0.00004749

     Total force =     0.006849     Total SCF correction =     0.001296
     SCF correction compared to forces is large: reduce conv_thr to get better values
 !ASE

     Writing output data file calc.save
 
     init_run     :     91.72s CPU     92.63s WALL (       1 calls)
     electrons    : 183506.90s CPU 249003.94s WALL (      29 calls)
     update_pot   :    125.85s CPU    149.51s WALL (      28 calls)
     forces       :   1595.67s CPU   1608.21s WALL (      29 calls)

     Called by init_run:
     wfcinit      :     72.79s CPU     73.48s WALL (       1 calls)
     potinit      :      1.98s CPU      2.07s WALL (       1 calls)

     Called by electrons:
     c_bands      : 137091.81s CPU 201355.91s WALL (     718 calls)
     sum_band     :  26306.60s CPU  26677.96s WALL (     718 calls)
     v_of_rho     :    476.92s CPU    710.52s WALL (     747 calls)
     newd         :  11628.95s CPU  11928.62s WALL (     747 calls)
     mix_rho      :   8410.08s CPU   8730.41s WALL (     718 calls)

     Called by c_bands:
     init_us_2    :    361.92s CPU    363.74s WALL (   14660 calls)
     cegterg      : 134428.83s CPU 198622.94s WALL (    7180 calls)

     Called by *egterg:
     h_psi        :  96447.96s CPU  96462.11s WALL (   26832 calls)
     s_psi        :   5144.12s CPU   5142.32s WALL (   26832 calls)
     g_psi        :    110.17s CPU    110.13s WALL (   19642 calls)
     cdiaghg      :   8651.26s CPU   8647.69s WALL (   26542 calls)

     Called by h_psi:
     add_vuspsi   :   5142.68s CPU   5141.06s WALL (   26832 calls)

     General routines
     calbec       :   7475.61s CPU   7496.60s WALL (   34302 calls)
     fft          :   2236.80s CPU   2403.44s WALL (   12183 calls)
     ffts         :   4624.33s CPU   4925.39s WALL (  865000 calls)
     fftw         :  91615.64s CPU  91562.87s WALL (13188086 calls)
     interpolate  :     55.66s CPU     74.35s WALL (    1465 calls)
     davcio       :      0.01s CPU      4.01s WALL (      10 calls)
 
     Parallel routines
     fft_scatter  :  65104.59s CPU  65354.59s WALL (14065269 calls)
 
     PWSCF        :     2d    3h36m CPU        2d   21h48m WALL

 
   This run was terminated on:  15:56: 0   9Apr2019            

=------------------------------------------------------------------------------=
   JOB DONE.
=------------------------------------------------------------------------------=
