  python dir          : /gpfs/pace1/project/chbe-medford/medford-share/gits/frozen/ben_espresso_8_24_2017/espresso
  espresso dir        : /nv/hp22/amedford6/medford-shared/builds/espresso/5.1.r11289-pybeef/intel-16.0+mvapich2-2.2+mkl-11.3/espresso-5.1.r11289-pybeef/bin
  pseudo dir          : /gpfs/pace1/project/chbe-medford/medford-share/data/pseudos/SSSP_eff_PBE
  ase-espresso py git : GITVERSION



     Program PWSCF v.5.1rc2 starts on  9Feb2019 at 22:48:31 

     This program is part of the open-source Quantum ESPRESSO suite
     for quantum simulation of materials; please cite
         "P. Giannozzi et al., J. Phys.:Condens. Matter 21 395502 (2009);
          URL http://www.quantum-espresso.org", 
     in publications or presentations arising from this work. More details at
     http://www.quantum-espresso.org/quote

     Parallel version (MPI), running on    12 processors
     R & G space division:  proc/nbgrp/npool/nimage =      12
     Reading input from pw.inp
     Message from routine read_cards :
     DEPRECATED: no units specified in CELL_PARAMETERS card

     Current dimensions of program PWSCF are:
     Max number of different atomic species (ntypx) = 10
     Max number of k-points (npk) =  40000
     Max angular momentum in pseudopotentials (lmaxx) =  3

     IMPORTANT: XC functional enforced from input :
     Exchange-correlation      = PBE ( 1  4  3  4 0)
     Any further DFT definition will be discarded
     Please, verify this is what you really want


     Subspace diagonalization in iterative solution of the eigenvalue problem:
     a serial algorithm will be used

 
     Parallelization info
     --------------------
     sticks:   dense  smooth     PW     G-vecs:    dense   smooth      PW
     Min         706     346     91               154640    52846    7207
     Max         707     347     92               154655    52876    7218
     Sum        8479    4153   1099              1855749   634381   86559
 


     bravais-lattice index     =            0
     lattice parameter (alat)  =       1.8897  a.u.
     unit-cell volume          =   18274.0366 (a.u.)^3
     number of atoms/cell      =           47
     number of atomic types    =            4
     number of electrons       =       658.00
     number of Kohn-Sham states=          339
     kinetic-energy cutoff     =      40.4243  Ry
     charge density cutoff     =     330.7439  Ry
     convergence threshold     =      7.3E-07
     mixing beta               =       0.2000
     number of iterations used =            8  local-TF  mixing
     Exchange-correlation      = PBE ( 1  4  3  4 0)
     nstep                     =           50


     celldm(1)=   1.889726  celldm(2)=   0.000000  celldm(3)=   0.000000
     celldm(4)=   0.000000  celldm(5)=   0.000000  celldm(6)=   0.000000

     crystal axes: (cart. coord. in units of alat)
               a(1) = (  10.224481   0.000000   0.000000 )  
               a(2) = (  -5.112241   8.854660   0.000000 )  
               a(3) = (   0.000000   0.000000  29.910570 )  

     reciprocal axes: (cart. coord. in units 2 pi/alat)
               b(1) = (  0.097804  0.056467  0.000000 )  
               b(2) = (  0.000000  0.112935  0.000000 )  
               b(3) = (  0.000000  0.000000  0.033433 )  


     PseudoPot. # 1 for Cu read from file:
     /gpfs/pace1/project/chbe-medford/medford-share/data/pseudos/SSSP_eff_PBE/Cu.UPF
     MD5 check sum: 6e991ff952a84172a2a52a1c1e996048
     Pseudo is Ultrasoft + core correction, Zval = 19.0
     Generated by new atomic code, or converted to UPF format
     Using radial grid of  867 points,  6 beta functions with: 
                l(1) =   0
                l(2) =   0
                l(3) =   1
                l(4) =   1
                l(5) =   2
                l(6) =   2
     Q(r) pseudized with  8 coefficients,  rinner =    1.150   1.150   1.150
                                                       1.150   1.150

     PseudoPot. # 2 for O  read from file:
     /gpfs/pace1/project/chbe-medford/medford-share/data/pseudos/SSSP_eff_PBE/O.UPF
     MD5 check sum: 734c27235a0248c51dbae37a1fbe46ec
     Pseudo is Ultrasoft + core correction, Zval =  6.0
     Generated by new atomic code, or converted to UPF format
     Using radial grid of  737 points,  5 beta functions with: 
                l(1) =   0
                l(2) =   0
                l(3) =   1
                l(4) =   1
                l(5) =   2
     Q(r) pseudized with  8 coefficients,  rinner =    0.900   0.900   0.900
                                                       0.900   0.900

     PseudoPot. # 3 for C  read from file:
     /gpfs/pace1/project/chbe-medford/medford-share/data/pseudos/SSSP_eff_PBE/C.UPF
     MD5 check sum: d1aef80898a10debaa0f26306b886e00
     Pseudo is Ultrasoft + core correction, Zval =  4.0
     Generated by new atomic code, or converted to UPF format
     Using radial grid of  721 points,  4 beta functions with: 
                l(1) =   0
                l(2) =   0
                l(3) =   1
                l(4) =   1
     Q(r) pseudized with  8 coefficients,  rinner =    1.100   1.100   1.100


     PseudoPot. # 4 for  H read from file:
     /gpfs/pace1/project/chbe-medford/medford-share/data/pseudos/SSSP_eff_PBE/H.UPF
     MD5 check sum: 36633979392af7100e6f6632747262d3
     Pseudo is Ultrasoft, Zval =  1.0
     Generated using "atomic" code by A. Dal Corso  v.5.0.99 svn rev. 10869
     Using radial grid of  929 points,  2 beta functions with: 
                l(1) =   0
                l(2) =   0
     Q(r) pseudized with 0 coefficients 


     atomic species   valence    mass     pseudopotential
        Cu1           19.00    63.54600     Cu( 1.00)
        O1             6.00    15.99940     O ( 1.00)
        C1             4.00    12.01100     C ( 1.00)
        H1             1.00     1.00794      H( 1.00)

     No symmetry found



   Cartesian axes

     site n.     atom                  positions (alat units)
         1           Cu1 tau(   1) = (   0.0000000   0.0000000  10.0000000  )
         2           Cu1 tau(   2) = (   1.2780602   0.7378884  12.0870635  )
         3           Cu1 tau(   3) = (  -1.2780602   2.2136651  10.0000000  )
         4           Cu1 tau(   4) = (   0.0000000   2.9515535  12.0870635  )
         5           Cu1 tau(   5) = (  -2.5561203   4.4273302  10.0000000  )
         6           Cu1 tau(   6) = (  -1.2780602   5.1652186  12.0870635  )
         7           Cu1 tau(   7) = (  -3.8341805   6.6409954  10.0000000  )
         8           Cu1 tau(   8) = (  -2.5561203   7.3788837  12.0870635  )
         9           Cu1 tau(   9) = (   2.5561203   0.0000000  10.0000000  )
        10           Cu1 tau(  10) = (   3.8341805   0.7378884  12.0870635  )
        11           Cu1 tau(  11) = (   1.2780602   2.2136651  10.0000000  )
        12           Cu1 tau(  12) = (   2.5561203   2.9515535  12.0870635  )
        13           Cu1 tau(  13) = (   0.0000000   4.4273302  10.0000000  )
        14           Cu1 tau(  14) = (   1.2780602   5.1652186  12.0870635  )
        15           Cu1 tau(  15) = (  -1.2780602   6.6409954  10.0000000  )
        16           Cu1 tau(  16) = (   0.0000000   7.3788837  12.0870635  )
        17           Cu1 tau(  17) = (   5.1122406   0.0000000  10.0000000  )
        18           Cu1 tau(  18) = (   6.3903008   0.7378884  12.0870635  )
        19           Cu1 tau(  19) = (   3.8341805   2.2136651  10.0000000  )
        20           Cu1 tau(  20) = (   5.1122406   2.9515535  12.0870635  )
        21           Cu1 tau(  21) = (   2.5561203   4.4273302  10.0000000  )
        22           Cu1 tau(  22) = (   3.8341805   5.1652186  12.0870635  )
        23           Cu1 tau(  23) = (   1.2780602   6.6409954  10.0000000  )
        24           Cu1 tau(  24) = (   2.5561203   7.3788837  12.0870635  )
        25           Cu1 tau(  25) = (   7.6683609   0.0000000  10.0000000  )
        26           Cu1 tau(  26) = (   8.9464211   0.7378884  12.0870635  )
        27           Cu1 tau(  27) = (   6.3903008   2.2136651  10.0000000  )
        28           Cu1 tau(  28) = (   7.6683609   2.9515535  12.0870635  )
        29           Cu1 tau(  29) = (   5.1122406   4.4273302  10.0000000  )
        30           Cu1 tau(  30) = (   6.3903008   5.1652186  12.0870635  )
        31           Cu1 tau(  31) = (   3.8341805   6.6409954  10.0000000  )
        32           Cu1 tau(  32) = (   5.1122406   7.3788837  12.0870635  )
        33           O1  tau(  33) = (   2.5560000   4.4270000  14.5870635  )
        34           O1  tau(  34) = (   4.5690351   5.7065000  18.1623425  )
        35           O1  tau(  35) = (   1.7352300   4.0741000  16.6792481  )
        36           O1  tau(  36) = (   4.6352155   4.2599000  19.9105704  )
        37           C1  tau(  37) = (   4.1246743   3.8101000  16.2258871  )
        38           C1  tau(  38) = (   4.2922348   3.4346000  17.6717104  )
        39           C1  tau(  39) = (   2.6764576   4.1007000  15.9005021  )
        40           C1  tau(  40) = (   4.5140857   4.4716000  18.7135673  )
        41           C1  tau(  41) = (   4.2201491   2.1618000  18.0904543  )
        42           H1  tau(  42) = (   4.7382465   4.6783000  15.9648253  )
        43           H1  tau(  43) = (   4.4487627   2.9790000  15.5868247  )
        44           H1  tau(  44) = (   4.0460862   1.3552000  17.3849686  )
        45           H1  tau(  45) = (   4.3285197   1.8796000  19.1323576  )
        46           H1  tau(  46) = (   1.6275546   4.6307000  14.3449490  )
        47           H1  tau(  47) = (   4.7159563   6.4037000  18.8366176  )

     number of k points=     4  Fermi-Dirac smearing, width (Ry)=  0.0073
                       cart. coord. in units 2pi/alat
        k(    1) = (   0.0000000   0.0000000   0.0000000), wk =   0.5000000
        k(    2) = (   0.0000000  -0.0564674   0.0000000), wk =   0.5000000
        k(    3) = (   0.0489022  -0.0282337   0.0000000), wk =   0.5000000
        k(    4) = (  -0.0489022  -0.0282337   0.0000000), wk =   0.5000000

     Dense  grid:  1855749 G-vectors     FFT dimensions: ( 120, 120, 360)

     Smooth grid:   634381 G-vectors     FFT dimensions: (  80,  80, 240)

     Largest allocated arrays     est. size (Mb)     dimensions
        Kohn-Sham Wavefunctions        34.55 Mb     (    6680,  339)
        NL pseudopotentials            69.31 Mb     (    6680,  680)
        Each V/rho on FFT grid          6.59 Mb     (  432000)
        Each G-vector array             1.18 Mb     (  154647)
        G-vector shells                 0.37 Mb     (   49044)
     Largest temporary arrays     est. size (Mb)     dimensions
        Auxiliary wavefunctions       138.22 Mb     (    6680, 1356)
        Each subspace H/S matrix       28.06 Mb     (    1356, 1356)
        Each <psi_i|beta_j> matrix      3.52 Mb     (     680,  339)
        Arrays for rho mixing          52.73 Mb     (  432000,    8)

     Initial potential from superposition of free atoms
     Check: negative starting charge=   -0.010062

     starting charge  625.99967, renormalised to  658.00000

     negative rho (up, down):  1.058E-02 0.000E+00
     Starting wfc are  458 randomized atomic wfcs

     total cpu time spent up to now is       49.3 secs

     per-process dynamical memory:   390.3 Mb

     Self-consistent Calculation

     iteration #  1     ecut=    40.42 Ry     beta=0.20
     Davidson diagonalization with overlap
     ethr =  1.00E-02,  avg # of iterations =  5.0

     negative rho (up, down):  2.758E-01 0.000E+00

     total cpu time spent up to now is      194.8 secs

     total energy              =  -13128.64931807 Ry
     Harris-Foulkes estimate   =  -13159.66017073 Ry
     estimated scf accuracy    <     719.65708359 Ry

     iteration #  2     ecut=    40.42 Ry     beta=0.20
     Davidson diagonalization with overlap
     ethr =  1.00E-02,  avg # of iterations =  3.5

     negative rho (up, down):  6.288E-01 0.000E+00

     total cpu time spent up to now is      291.4 secs

     total energy              =  -13091.16186460 Ry
     Harris-Foulkes estimate   =  -13133.12955926 Ry
     estimated scf accuracy    <     490.83541287 Ry

     iteration #  3     ecut=    40.42 Ry     beta=0.20
     Davidson diagonalization with overlap
     ethr =  1.00E-02,  avg # of iterations = 11.2

     negative rho (up, down):  5.635E-01 0.000E+00

     total cpu time spent up to now is      459.4 secs

     total energy              =  -13116.62810192 Ry
     Harris-Foulkes estimate   =  -13120.22533595 Ry
     estimated scf accuracy    <      43.66687691 Ry

     iteration #  4     ecut=    40.42 Ry     beta=0.20
     Davidson diagonalization with overlap
     ethr =  6.64E-03,  avg # of iterations =  1.0

     negative rho (up, down):  4.421E-01 0.000E+00

     total cpu time spent up to now is      546.9 secs

     total energy              =  -13111.85596071 Ry
     Harris-Foulkes estimate   =  -13117.11710291 Ry
     estimated scf accuracy    <      35.51758447 Ry

     iteration #  5     ecut=    40.42 Ry     beta=0.20
     Davidson diagonalization with overlap
     ethr =  5.40E-03,  avg # of iterations =  6.2

     negative rho (up, down):  4.676E-01 0.000E+00

     total cpu time spent up to now is      651.8 secs

     total energy              =  -13114.92363797 Ry
     Harris-Foulkes estimate   =  -13116.62493632 Ry
     estimated scf accuracy    <      28.52435928 Ry

     iteration #  6     ecut=    40.42 Ry     beta=0.20
     Davidson diagonalization with overlap
     ethr =  4.34E-03,  avg # of iterations =  1.8

     negative rho (up, down):  4.641E-01 0.000E+00

     total cpu time spent up to now is      742.2 secs

     total energy              =  -13114.45586039 Ry
     Harris-Foulkes estimate   =  -13115.44454852 Ry
     estimated scf accuracy    <      13.49381532 Ry

     iteration #  7     ecut=    40.42 Ry     beta=0.20
     Davidson diagonalization with overlap
     ethr =  2.05E-03,  avg # of iterations =  4.8

     negative rho (up, down):  4.269E-01 0.000E+00

     total cpu time spent up to now is      838.3 secs

     total energy              =  -13114.03554323 Ry
     Harris-Foulkes estimate   =  -13114.77483288 Ry
     estimated scf accuracy    <       5.71467272 Ry

     iteration #  8     ecut=    40.42 Ry     beta=0.20
     Davidson diagonalization with overlap
     ethr =  8.68E-04,  avg # of iterations =  5.5

     negative rho (up, down):  4.235E-01 0.000E+00

     total cpu time spent up to now is      939.1 secs

     total energy              =  -13114.26669072 Ry
     Harris-Foulkes estimate   =  -13114.39487717 Ry
     estimated scf accuracy    <       2.16515244 Ry

     iteration #  9     ecut=    40.42 Ry     beta=0.20
     Davidson diagonalization with overlap
     ethr =  3.29E-04,  avg # of iterations =  2.8

     negative rho (up, down):  3.564E-01 0.000E+00

     total cpu time spent up to now is     1030.3 secs

     total energy              =  -13113.96257595 Ry
     Harris-Foulkes estimate   =  -13114.31722798 Ry
     estimated scf accuracy    <       1.60681361 Ry

     iteration # 10     ecut=    40.42 Ry     beta=0.20
     Davidson diagonalization with overlap
     ethr =  2.44E-04,  avg # of iterations =  3.0

     negative rho (up, down):  3.579E-01 0.000E+00

     total cpu time spent up to now is     1124.6 secs

     total energy              =  -13113.98566779 Ry
     Harris-Foulkes estimate   =  -13114.12325922 Ry
     estimated scf accuracy    <       4.83719333 Ry

     iteration # 11     ecut=    40.42 Ry     beta=0.20
     Davidson diagonalization with overlap
     ethr =  2.44E-04,  avg # of iterations =  1.2

     negative rho (up, down):  3.233E-01 0.000E+00

     total cpu time spent up to now is     1213.7 secs

     total energy              =  -13113.79232976 Ry
     Harris-Foulkes estimate   =  -13114.02811560 Ry
     estimated scf accuracy    <       1.94095949 Ry

     iteration # 12     ecut=    40.42 Ry     beta=0.20
     Davidson diagonalization with overlap
     ethr =  2.44E-04,  avg # of iterations =  2.2

     negative rho (up, down):  2.948E-01 0.000E+00

     total cpu time spent up to now is     1305.2 secs

     total energy              =  -13113.83872518 Ry
     Harris-Foulkes estimate   =  -13113.91494323 Ry
     estimated scf accuracy    <       0.81461079 Ry

     iteration # 13     ecut=    40.42 Ry     beta=0.20
     Davidson diagonalization with overlap
     ethr =  1.24E-04,  avg # of iterations =  2.0

     negative rho (up, down):  2.268E-01 0.000E+00

     total cpu time spent up to now is     1396.4 secs

     total energy              =  -13113.65194377 Ry
     Harris-Foulkes estimate   =  -13113.84658290 Ry
     estimated scf accuracy    <       0.62751395 Ry

     iteration # 14     ecut=    40.42 Ry     beta=0.20
     Davidson diagonalization with overlap
     ethr =  9.54E-05,  avg # of iterations =  3.0

     negative rho (up, down):  2.070E-01 0.000E+00

     total cpu time spent up to now is     1491.2 secs

     total energy              =  -13113.66857158 Ry
     Harris-Foulkes estimate   =  -13113.69869653 Ry
     estimated scf accuracy    <       0.35529773 Ry

     iteration # 15     ecut=    40.42 Ry     beta=0.20
     Davidson diagonalization with overlap
     ethr =  5.40E-05,  avg # of iterations =  3.0

     negative rho (up, down):  2.070E-01 0.000E+00

     total cpu time spent up to now is     1583.7 secs

     total energy              =  -13113.57842754 Ry
     Harris-Foulkes estimate   =  -13113.69533483 Ry
     estimated scf accuracy    <       2.03403213 Ry

     iteration # 16     ecut=    40.42 Ry     beta=0.20
     Davidson diagonalization with overlap
     ethr =  5.40E-05,  avg # of iterations =  3.0

     negative rho (up, down):  2.360E-01 0.000E+00

     total cpu time spent up to now is     1675.8 secs

     total energy              =  -13113.61047007 Ry
     Harris-Foulkes estimate   =  -13113.64929090 Ry
     estimated scf accuracy    <       0.22771814 Ry

     iteration # 17     ecut=    40.42 Ry     beta=0.20
     Davidson diagonalization with overlap
     ethr =  3.46E-05,  avg # of iterations =  2.0

     negative rho (up, down):  2.102E-01 0.000E+00

     total cpu time spent up to now is     1766.1 secs

     total energy              =  -13113.58986529 Ry
     Harris-Foulkes estimate   =  -13113.61563484 Ry
     estimated scf accuracy    <       0.15854439 Ry

     iteration # 18     ecut=    40.42 Ry     beta=0.20
     Davidson diagonalization with overlap
     ethr =  2.41E-05,  avg # of iterations =  3.0

     negative rho (up, down):  2.249E-01 0.000E+00

     total cpu time spent up to now is     1859.9 secs

     total energy              =  -13113.57544483 Ry
     Harris-Foulkes estimate   =  -13113.60101575 Ry
     estimated scf accuracy    <       0.51955753 Ry

     iteration # 19     ecut=    40.42 Ry     beta=0.20
     Davidson diagonalization with overlap
     ethr =  2.41E-05,  avg # of iterations =  2.0

     negative rho (up, down):  2.179E-01 0.000E+00

     total cpu time spent up to now is     1951.6 secs

     total energy              =  -13113.56788843 Ry
     Harris-Foulkes estimate   =  -13113.58611694 Ry
     estimated scf accuracy    <       0.10309419 Ry

     iteration # 20     ecut=    40.42 Ry     beta=0.20
     Davidson diagonalization with overlap
     ethr =  1.57E-05,  avg # of iterations =  3.0

     negative rho (up, down):  2.172E-01 0.000E+00

     total cpu time spent up to now is     2044.6 secs

     total energy              =  -13113.56981486 Ry
     Harris-Foulkes estimate   =  -13113.57150576 Ry
     estimated scf accuracy    <       0.07332749 Ry

     iteration # 21     ecut=    40.42 Ry     beta=0.20
     Davidson diagonalization with overlap
     ethr =  1.11E-05,  avg # of iterations =  2.0

     negative rho (up, down):  1.986E-01 0.000E+00

     total cpu time spent up to now is     2134.0 secs

     total energy              =  -13113.56810376 Ry
     Harris-Foulkes estimate   =  -13113.57053678 Ry
     estimated scf accuracy    <       0.06484227 Ry

     iteration # 22     ecut=    40.42 Ry     beta=0.20
     Davidson diagonalization with overlap
     ethr =  9.85E-06,  avg # of iterations =  1.0

     negative rho (up, down):  1.368E-01 0.000E+00

     total cpu time spent up to now is     2220.2 secs

     total energy              =  -13113.54828155 Ry
     Harris-Foulkes estimate   =  -13113.56834240 Ry
     estimated scf accuracy    <       0.05773942 Ry

     iteration # 23     ecut=    40.42 Ry     beta=0.20
     Davidson diagonalization with overlap
     ethr =  8.77E-06,  avg # of iterations =  3.0

     negative rho (up, down):  1.154E-01 0.000E+00

     total cpu time spent up to now is     2312.5 secs

     total energy              =  -13113.54474217 Ry
     Harris-Foulkes estimate   =  -13113.55067743 Ry
     estimated scf accuracy    <       0.03171136 Ry

     iteration # 24     ecut=    40.42 Ry     beta=0.20
     Davidson diagonalization with overlap
     ethr =  4.82E-06,  avg # of iterations =  2.0

     negative rho (up, down):  1.018E-01 0.000E+00

     total cpu time spent up to now is     2400.4 secs

     total energy              =  -13113.54359177 Ry
     Harris-Foulkes estimate   =  -13113.54521288 Ry
     estimated scf accuracy    <       0.02516348 Ry

     iteration # 25     ecut=    40.42 Ry     beta=0.20
     Davidson diagonalization with overlap
     ethr =  3.82E-06,  avg # of iterations =  1.2

     negative rho (up, down):  4.894E-02 0.000E+00

     total cpu time spent up to now is     2490.1 secs

     total energy              =  -13113.54044808 Ry
     Harris-Foulkes estimate   =  -13113.54372697 Ry
     estimated scf accuracy    <       0.02215398 Ry

     iteration # 26     ecut=    40.42 Ry     beta=0.20
     Davidson diagonalization with overlap
     ethr =  3.37E-06,  avg # of iterations =  3.0

     negative rho (up, down):  4.418E-02 0.000E+00

     total cpu time spent up to now is     2582.3 secs

     total energy              =  -13113.53920617 Ry
     Harris-Foulkes estimate   =  -13113.54089545 Ry
     estimated scf accuracy    <       0.01692163 Ry

     iteration # 27     ecut=    40.42 Ry     beta=0.20
     Davidson diagonalization with overlap
     ethr =  2.57E-06,  avg # of iterations =  1.5

     negative rho (up, down):  5.594E-02 0.000E+00

     total cpu time spent up to now is     2670.6 secs

     total energy              =  -13113.53549687 Ry
     Harris-Foulkes estimate   =  -13113.53929673 Ry
     estimated scf accuracy    <       0.01424695 Ry

     iteration # 28     ecut=    40.42 Ry     beta=0.20
     Davidson diagonalization with overlap
     ethr =  2.17E-06,  avg # of iterations =  3.8

     negative rho (up, down):  3.894E-02 0.000E+00

     total cpu time spent up to now is     2764.9 secs

     total energy              =  -13113.53488174 Ry
     Harris-Foulkes estimate   =  -13113.53611452 Ry
     estimated scf accuracy    <       0.00920163 Ry

     iteration # 29     ecut=    40.42 Ry     beta=0.20
     Davidson diagonalization with overlap
     ethr =  1.40E-06,  avg # of iterations =  3.0

     negative rho (up, down):  3.635E-02 0.000E+00

     total cpu time spent up to now is     2860.4 secs

     total energy              =  -13113.53295788 Ry
     Harris-Foulkes estimate   =  -13113.53514045 Ry
     estimated scf accuracy    <       0.00709121 Ry

     iteration # 30     ecut=    40.42 Ry     beta=0.20
     Davidson diagonalization with overlap
     ethr =  1.08E-06,  avg # of iterations =  3.0

     negative rho (up, down):  2.620E-02 0.000E+00

     total cpu time spent up to now is     2954.1 secs

     total energy              =  -13113.53298689 Ry
     Harris-Foulkes estimate   =  -13113.53314529 Ry
     estimated scf accuracy    <       0.00471140 Ry

     iteration # 31     ecut=    40.42 Ry     beta=0.20
     Davidson diagonalization with overlap
     ethr =  7.16E-07,  avg # of iterations =  2.0

     negative rho (up, down):  3.923E-02 0.000E+00

     total cpu time spent up to now is     3046.1 secs

     total energy              =  -13113.53301604 Ry
     Harris-Foulkes estimate   =  -13113.53306783 Ry
     estimated scf accuracy    <       0.00336595 Ry

     iteration # 32     ecut=    40.42 Ry     beta=0.20
     Davidson diagonalization with overlap
     ethr =  5.12E-07,  avg # of iterations =  3.0

     negative rho (up, down):  3.185E-02 0.000E+00

     total cpu time spent up to now is     3142.2 secs

     total energy              =  -13113.53281533 Ry
     Harris-Foulkes estimate   =  -13113.53309868 Ry
     estimated scf accuracy    <       0.00235668 Ry

     iteration # 33     ecut=    40.42 Ry     beta=0.20
     Davidson diagonalization with overlap
     ethr =  3.58E-07,  avg # of iterations =  3.0

     negative rho (up, down):  1.577E-02 0.000E+00

     total cpu time spent up to now is     3242.5 secs

     total energy              =  -13113.53217295 Ry
     Harris-Foulkes estimate   =  -13113.53284017 Ry
     estimated scf accuracy    <       0.00185348 Ry

     iteration # 34     ecut=    40.42 Ry     beta=0.20
     Davidson diagonalization with overlap
     ethr =  2.82E-07,  avg # of iterations =  4.0

     negative rho (up, down):  1.601E-02 0.000E+00

     total cpu time spent up to now is     3344.1 secs

     total energy              =  -13113.53226355 Ry
     Harris-Foulkes estimate   =  -13113.53232941 Ry
     estimated scf accuracy    <       0.00056401 Ry

     iteration # 35     ecut=    40.42 Ry     beta=0.20
     Davidson diagonalization with overlap
     ethr =  8.57E-08,  avg # of iterations =  3.0

     negative rho (up, down):  7.258E-03 0.000E+00

     total cpu time spent up to now is     3442.5 secs

     total energy              =  -13113.53227975 Ry
     Harris-Foulkes estimate   =  -13113.53228759 Ry
     estimated scf accuracy    <       0.00035782 Ry

     iteration # 36     ecut=    40.42 Ry     beta=0.20
     Davidson diagonalization with overlap
     ethr =  5.44E-08,  avg # of iterations =  3.0

     negative rho (up, down):  5.872E-03 0.000E+00

     total cpu time spent up to now is     3538.9 secs

     total energy              =  -13113.53233951 Ry
     Harris-Foulkes estimate   =  -13113.53229871 Ry
     estimated scf accuracy    <       0.00018733 Ry

     iteration # 37     ecut=    40.42 Ry     beta=0.20
     Davidson diagonalization with overlap
     ethr =  2.85E-08,  avg # of iterations =  1.0

     negative rho (up, down):  3.272E-03 0.000E+00

     total cpu time spent up to now is     3638.5 secs

     total energy              =  -13113.53240026 Ry
     Harris-Foulkes estimate   =  -13113.53234151 Ry
     estimated scf accuracy    <       0.00015912 Ry

     iteration # 38     ecut=    40.42 Ry     beta=0.20
     Davidson diagonalization with overlap
     ethr =  2.42E-08,  avg # of iterations =  3.0

     negative rho (up, down):  2.716E-03 0.000E+00

     total cpu time spent up to now is     3737.9 secs

     total energy              =  -13113.53240747 Ry
     Harris-Foulkes estimate   =  -13113.53240485 Ry
     estimated scf accuracy    <       0.00010938 Ry

     iteration # 39     ecut=    40.42 Ry     beta=0.20
     Davidson diagonalization with overlap
     ethr =  1.66E-08,  avg # of iterations =  2.0

     negative rho (up, down):  2.833E-03 0.000E+00

     total cpu time spent up to now is     3841.4 secs

     total energy              =  -13113.53242093 Ry
     Harris-Foulkes estimate   =  -13113.53240858 Ry
     estimated scf accuracy    <       0.00009899 Ry

     iteration # 40     ecut=    40.42 Ry     beta=0.20
     Davidson diagonalization with overlap
     ethr =  1.50E-08,  avg # of iterations =  1.2

     negative rho (up, down):  5.859E-03 0.000E+00

     total cpu time spent up to now is     3934.7 secs

     total energy              =  -13113.53242691 Ry
     Harris-Foulkes estimate   =  -13113.53242141 Ry
     estimated scf accuracy    <       0.00008271 Ry

     iteration # 41     ecut=    40.42 Ry     beta=0.20
     Davidson diagonalization with overlap
     ethr =  1.26E-08,  avg # of iterations =  3.2

     negative rho (up, down):  5.054E-03 0.000E+00

     total cpu time spent up to now is     4040.3 secs

     total energy              =  -13113.53242134 Ry
     Harris-Foulkes estimate   =  -13113.53243115 Ry
     estimated scf accuracy    <       0.00004953 Ry

     iteration # 42     ecut=    40.42 Ry     beta=0.20
     Davidson diagonalization with overlap
     ethr =  7.53E-09,  avg # of iterations =  3.2

     negative rho (up, down):  5.724E-03 0.000E+00

     total cpu time spent up to now is     4145.5 secs

     total energy              =  -13113.53242033 Ry
     Harris-Foulkes estimate   =  -13113.53242311 Ry
     estimated scf accuracy    <       0.00004301 Ry

     iteration # 43     ecut=    40.42 Ry     beta=0.20
     Davidson diagonalization with overlap
     ethr =  6.54E-09,  avg # of iterations =  2.5

     negative rho (up, down):  4.292E-03 0.000E+00

     total cpu time spent up to now is     4244.7 secs

     total energy              =  -13113.53240564 Ry
     Harris-Foulkes estimate   =  -13113.53242171 Ry
     estimated scf accuracy    <       0.00002539 Ry

     iteration # 44     ecut=    40.42 Ry     beta=0.20
     Davidson diagonalization with overlap
     ethr =  3.86E-09,  avg # of iterations =  3.2

     negative rho (up, down):  3.314E-03 0.000E+00

     total cpu time spent up to now is     4341.6 secs

     total energy              =  -13113.53241147 Ry
     Harris-Foulkes estimate   =  -13113.53240625 Ry
     estimated scf accuracy    <       0.00001808 Ry

     iteration # 45     ecut=    40.42 Ry     beta=0.20
     Davidson diagonalization with overlap
     ethr =  2.75E-09,  avg # of iterations =  2.0

     negative rho (up, down):  4.045E-03 0.000E+00

     total cpu time spent up to now is     4440.4 secs

     total energy              =  -13113.53241145 Ry
     Harris-Foulkes estimate   =  -13113.53241177 Ry
     estimated scf accuracy    <       0.00001268 Ry

     iteration # 46     ecut=    40.42 Ry     beta=0.20
     Davidson diagonalization with overlap
     ethr =  1.93E-09,  avg # of iterations =  3.2

     negative rho (up, down):  4.272E-03 0.000E+00

     total cpu time spent up to now is     4535.2 secs

     total energy              =  -13113.53241119 Ry
     Harris-Foulkes estimate   =  -13113.53241223 Ry
     estimated scf accuracy    <       0.00000514 Ry

     iteration # 47     ecut=    40.42 Ry     beta=0.20
     Davidson diagonalization with overlap
     ethr =  7.81E-10,  avg # of iterations =  3.0

     negative rho (up, down):  4.549E-03 0.000E+00

     total cpu time spent up to now is     4631.9 secs

     total energy              =  -13113.53241094 Ry
     Harris-Foulkes estimate   =  -13113.53241131 Ry
     estimated scf accuracy    <       0.00000331 Ry

     iteration # 48     ecut=    40.42 Ry     beta=0.20
     Davidson diagonalization with overlap
     ethr =  5.03E-10,  avg # of iterations =  3.0

     negative rho (up, down):  4.759E-03 0.000E+00

     total cpu time spent up to now is     4735.4 secs

     total energy              =  -13113.53241080 Ry
     Harris-Foulkes estimate   =  -13113.53241107 Ry
     estimated scf accuracy    <       0.00000196 Ry

     iteration # 49     ecut=    40.42 Ry     beta=0.20
     Davidson diagonalization with overlap
     ethr =  2.97E-10,  avg # of iterations =  4.0

     negative rho (up, down):  4.953E-03 0.000E+00

     total cpu time spent up to now is     4840.3 secs

     total energy              =  -13113.53241057 Ry
     Harris-Foulkes estimate   =  -13113.53241089 Ry
     estimated scf accuracy    <       0.00000090 Ry

     iteration # 50     ecut=    40.42 Ry     beta=0.20
     Davidson diagonalization with overlap
     ethr =  1.37E-10,  avg # of iterations =  3.5

     negative rho (up, down):  4.732E-03 0.000E+00

     total cpu time spent up to now is     4929.9 secs

     End of self-consistent calculation

          k = 0.0000 0.0000 0.0000 ( 79441 PWs)   bands (ev):

  -114.0491-113.9984-113.9963-113.9938-113.9935-113.9902-113.9897-113.9887
  -113.9883-113.9870-113.9866-113.9854-113.9849-113.9844-113.9836-113.9836
  -113.9831-113.9829-113.9826-113.9823-113.9821-113.9818-113.9816-113.9809
  -113.9801-113.9799-113.9796-113.9792-113.9787-113.9778-113.9761-113.9729
   -71.4834 -71.4805 -71.4630 -71.4580 -71.4564 -71.4549 -71.4518 -71.4504
   -71.4472 -71.4459 -71.4452 -71.4446 -71.4433 -71.4432 -71.4407 -71.4398
   -71.4393 -71.4386 -71.4312 -71.4299 -71.4223 -71.4214 -71.4209 -71.4201
   -71.4184 -71.4176 -71.4175 -71.4161 -71.4151 -71.4147 -71.4137 -71.4136
   -71.4128 -71.4123 -71.4119 -71.4115 -71.4066 -71.4065 -71.4062 -71.4056
   -71.4053 -71.4047 -71.4031 -71.4014 -71.4010 -71.3982 -71.3937 -71.3934
   -71.3910 -71.3905 -71.3894 -71.3891 -71.3885 -71.3876 -71.3869 -71.3820
   -71.3805 -71.3797 -71.3788 -71.3780 -71.3770 -71.3768 -71.3766 -71.3692
   -71.3691 -71.3524 -71.3444 -71.3415 -71.3399 -71.3394 -71.3384 -71.3356
   -71.3285 -71.3261 -71.3245 -71.3239 -71.3234 -71.3230 -71.3218 -71.3211
   -71.3154 -71.3079 -71.3063 -71.3058 -71.3056 -71.3053 -71.3044 -71.3032
   -71.3026 -71.3008 -71.3005 -71.2992 -71.2987 -71.2978 -71.2974 -71.2970
   -24.9194 -24.5109 -22.5711 -22.1152 -17.6153 -15.4018 -13.7011 -12.7368
   -10.8093  -9.7065  -9.4770  -9.4123  -9.0208  -8.6007  -8.3089  -7.8896
    -7.8831  -7.8778  -7.8765  -7.8757  -7.8741  -7.7809  -7.4097  -7.0420
    -6.9058  -6.8240  -6.4498  -6.0104  -6.0093  -6.0076  -5.9837  -5.9826
    -5.9812  -5.8689  -5.8449  -5.8447  -5.8425  -5.8419  -5.8410  -5.8389
    -5.7690  -5.7673  -5.7635  -5.7626  -5.7616  -5.7512  -5.5291  -5.5278
    -5.5268  -5.2518  -5.2475  -5.2467  -5.2457  -5.2447  -5.2443  -5.2167
    -5.1963  -5.1937  -5.1927  -5.1909  -5.1905  -5.1371  -4.9950  -4.9931
    -4.9927  -4.9921  -4.9884  -4.9788  -4.7095  -4.6990  -4.6977  -4.6943
    -4.6653  -4.6604  -4.6595  -4.6562  -4.6561  -4.6557  -4.5877  -4.5846
    -4.5802  -4.5793  -4.5789  -4.5772  -4.5744  -4.5466  -4.5416  -4.5398
    -4.5391  -4.5378  -4.5331  -4.4492  -4.4484  -4.4474  -4.4462  -4.4450
    -4.4438  -4.4427  -4.4423  -4.4410  -4.4406  -4.4379  -4.4296  -4.4280
    -4.4278  -4.3509  -4.3508  -4.2878  -4.2845  -4.2834  -4.2810  -4.2806
    -4.2740  -4.2572  -4.2560  -4.2524  -4.2513  -4.2507  -4.2501  -4.1183
    -4.1175  -4.1151  -4.0189  -4.0176  -4.0138  -4.0132  -4.0124  -4.0119
    -3.8806  -3.8215  -3.8087  -3.8083  -3.8057  -3.8053  -3.8045  -3.8036
    -3.7969  -3.7956  -3.7946  -3.7897  -3.7756  -3.7743  -3.7711  -3.7654
    -3.7266  -3.6330  -3.6327  -3.6200  -3.6191  -3.6170  -3.6165  -3.6159
    -3.6152  -3.6056  -3.6031  -3.5995  -3.5990  -3.5978  -3.5972  -3.5747
    -3.5374  -3.5238  -3.5230  -3.5216  -3.5196  -3.5156  -3.5146  -3.5088
    -3.4784  -3.3639  -3.3628  -3.3606  -3.2840  -3.2815  -3.2796  -3.2747
    -3.2744  -3.2738  -3.2729  -3.2727  -3.2720  -3.1940  -3.1863  -3.1861
    -3.1853  -3.1853  -3.1827  -3.0801  -3.0795  -3.0780  -3.0274  -3.0268
    -3.0258  -2.3560  -2.3270  -2.3228  -2.3211  -2.3099  -2.2315  -1.5919
    -1.4036  -1.4007  -1.3997  -1.3987  -1.3958  -1.3852  -1.2536  -1.2492
    -1.2340  -0.1408  -0.1364

          k = 0.0000-0.0565 0.0000 ( 79262 PWs)   bands (ev):

  -114.0491-113.9983-113.9963-113.9943-113.9929-113.9914-113.9893-113.9886
  -113.9877-113.9867-113.9863-113.9856-113.9850-113.9847-113.9841-113.9840
  -113.9832-113.9831-113.9826-113.9821-113.9817-113.9817-113.9812-113.9808
  -113.9806-113.9799-113.9798-113.9791-113.9786-113.9778-113.9761-113.9729
   -71.4823 -71.4794 -71.4573 -71.4552 -71.4546 -71.4510 -71.4500 -71.4495
   -71.4482 -71.4476 -71.4472 -71.4461 -71.4442 -71.4418 -71.4405 -71.4401
   -71.4388 -71.4378 -71.4368 -71.4359 -71.4322 -71.4311 -71.4307 -71.4287
   -71.4286 -71.4262 -71.4190 -71.4181 -71.4156 -71.4137 -71.4099 -71.4091
   -71.4073 -71.4071 -71.4060 -71.4040 -71.4027 -71.4021 -71.4013 -71.3997
   -71.3992 -71.3982 -71.3972 -71.3969 -71.3958 -71.3949 -71.3939 -71.3935
   -71.3906 -71.3898 -71.3892 -71.3884 -71.3878 -71.3875 -71.3864 -71.3856
   -71.3850 -71.3829 -71.3821 -71.3816 -71.3810 -71.3789 -71.3773 -71.3721
   -71.3716 -71.3499 -71.3475 -71.3442 -71.3412 -71.3354 -71.3342 -71.3327
   -71.3304 -71.3291 -71.3289 -71.3252 -71.3233 -71.3224 -71.3199 -71.3186
   -71.3143 -71.3096 -71.3072 -71.3067 -71.3056 -71.3046 -71.3035 -71.3027
   -71.3017 -71.3011 -71.3006 -71.2998 -71.2987 -71.2980 -71.2971 -71.2970
   -24.9194 -24.5109 -22.5711 -22.1152 -17.6153 -15.4018 -13.7010 -12.7367
   -10.8094  -9.4986  -9.4137  -9.2198  -9.2008  -8.9973  -8.6012  -8.3139
    -8.2825  -8.2691  -7.7974  -7.4112  -6.9433  -6.8841  -6.8352  -6.8323
    -6.8305  -6.7817  -6.6080  -6.5862  -6.5147  -6.5100  -6.4441  -5.9766
    -5.9753  -5.9740  -5.9731  -5.9089  -5.8960  -5.8613  -5.7334  -5.7302
    -5.6704  -5.6678  -5.6657  -5.6637  -5.5035  -5.5015  -5.4158  -5.4124
    -5.4089  -5.4076  -5.4059  -5.4046  -5.4029  -5.4021  -5.3844  -5.3761
    -5.3498  -5.3445  -5.2153  -5.2123  -5.1978  -5.1624  -5.1616  -5.1597
    -5.1034  -4.8223  -4.8198  -4.7638  -4.7600  -4.7077  -4.6348  -4.6330
    -4.6276  -4.6265  -4.6250  -4.6242  -4.6239  -4.6233  -4.6202  -4.6184
    -4.6126  -4.6114  -4.6010  -4.6005  -4.5794  -4.5766  -4.5742  -4.5684
    -4.5648  -4.5627  -4.5295  -4.5259  -4.5020  -4.5008  -4.4607  -4.4577
    -4.3931  -4.3930  -4.3889  -4.3878  -4.3218  -4.3190  -4.2680  -4.2676
    -4.2649  -4.2638  -4.2610  -4.2592  -4.2576  -4.2569  -4.2533  -4.2529
    -4.2021  -4.1986  -4.0775  -4.0707  -4.0644  -4.0612  -4.0606  -4.0585
    -4.0512  -4.0382  -4.0266  -4.0216  -4.0038  -4.0013  -3.9964  -3.9956
    -3.9939  -3.9880  -3.8844  -3.8792  -3.8631  -3.8508  -3.8483  -3.8464
    -3.8387  -3.8290  -3.7919  -3.7636  -3.7453  -3.7160  -3.6840  -3.6777
    -3.6750  -3.6699  -3.6663  -3.6643  -3.6553  -3.6299  -3.6280  -3.5849
    -3.5727  -3.5409  -3.4894  -3.4850  -3.4838  -3.4824  -3.4583  -3.4559
    -3.4525  -3.4508  -3.4164  -3.4115  -3.4095  -3.4079  -3.4072  -3.4067
    -3.3933  -3.3892  -3.3467  -3.3420  -3.3216  -3.3159  -3.3035  -3.3028
    -3.2996  -3.2988  -3.2810  -3.2746  -3.2702  -3.2597  -3.2565  -3.2340
    -3.2297  -3.2210  -3.2189  -3.1834  -3.1764  -3.1750  -3.1734  -3.1312
    -3.0920  -3.0350  -3.0336  -3.0324  -3.0269  -2.5669  -2.5193  -1.4138
    -1.4124  -1.4093  -1.4076  -1.2928  -1.2719  -1.2542  -1.2194  -0.7604
    -0.7527  -0.7059  -0.6603

          k = 0.0489-0.0282 0.0000 ( 79262 PWs)   bands (ev):

  -114.0491-113.9983-113.9962-113.9947-113.9926-113.9910-113.9895-113.9893
  -113.9871-113.9868-113.9860-113.9857-113.9851-113.9846-113.9839-113.9839
  -113.9835-113.9832-113.9829-113.9820-113.9816-113.9813-113.9812-113.9809
  -113.9807-113.9801-113.9797-113.9792-113.9786-113.9777-113.9761-113.9729
   -71.4821 -71.4797 -71.4563 -71.4556 -71.4552 -71.4509 -71.4500 -71.4487
   -71.4480 -71.4476 -71.4472 -71.4465 -71.4450 -71.4418 -71.4410 -71.4397
   -71.4387 -71.4376 -71.4367 -71.4362 -71.4318 -71.4312 -71.4300 -71.4299
   -71.4277 -71.4262 -71.4199 -71.4184 -71.4149 -71.4131 -71.4104 -71.4080
   -71.4075 -71.4073 -71.4067 -71.4054 -71.4023 -71.4013 -71.4007 -71.4002
   -71.3996 -71.3978 -71.3976 -71.3965 -71.3957 -71.3943 -71.3942 -71.3937
   -71.3905 -71.3896 -71.3894 -71.3882 -71.3878 -71.3872 -71.3869 -71.3860
   -71.3850 -71.3825 -71.3820 -71.3814 -71.3811 -71.3786 -71.3777 -71.3722
   -71.3715 -71.3501 -71.3474 -71.3429 -71.3423 -71.3360 -71.3341 -71.3329
   -71.3307 -71.3292 -71.3272 -71.3244 -71.3236 -71.3233 -71.3215 -71.3180
   -71.3131 -71.3098 -71.3086 -71.3057 -71.3054 -71.3048 -71.3037 -71.3021
   -71.3014 -71.3013 -71.3012 -71.2998 -71.2988 -71.2978 -71.2972 -71.2970
   -24.9194 -24.5109 -22.5711 -22.1151 -17.6153 -15.4018 -13.7010 -12.7367
   -10.8093  -9.4989  -9.4139  -9.2234  -9.1987  -8.9937  -8.6006  -8.3265
    -8.2806  -8.2599  -7.7978  -7.4108  -6.9475  -6.8831  -6.8352  -6.8322
    -6.8303  -6.7891  -6.6104  -6.5823  -6.5119  -6.4982  -6.4457  -5.9766
    -5.9763  -5.9748  -5.9732  -5.9111  -5.9011  -5.8592  -5.7316  -5.7293
    -5.6712  -5.6681  -5.6675  -5.6646  -5.5039  -5.5013  -5.4176  -5.4149
    -5.4088  -5.4072  -5.4061  -5.4038  -5.4034  -5.4021  -5.3795  -5.3760
    -5.3466  -5.3437  -5.2169  -5.2148  -5.1830  -5.1623  -5.1617  -5.1602
    -5.1190  -4.8225  -4.8194  -4.7607  -4.7592  -4.7082  -4.6362  -4.6300
    -4.6272  -4.6262  -4.6253  -4.6249  -4.6240  -4.6227  -4.6217  -4.6190
    -4.6132  -4.6117  -4.6009  -4.6000  -4.5780  -4.5751  -4.5748  -4.5682
    -4.5655  -4.5616  -4.5302  -4.5243  -4.5031  -4.5008  -4.4610  -4.4590
    -4.3951  -4.3922  -4.3895  -4.3844  -4.3225  -4.3209  -4.2681  -4.2676
    -4.2639  -4.2625  -4.2613  -4.2597  -4.2590  -4.2554  -4.2540  -4.2508
    -4.2020  -4.1991  -4.0766  -4.0712  -4.0652  -4.0620  -4.0614  -4.0582
    -4.0511  -4.0379  -4.0256  -4.0208  -4.0021  -4.0001  -3.9989  -3.9963
    -3.9930  -3.9881  -3.8845  -3.8786  -3.8674  -3.8488  -3.8472  -3.8438
    -3.8381  -3.8238  -3.7945  -3.7760  -3.7446  -3.7169  -3.6839  -3.6781
    -3.6736  -3.6693  -3.6677  -3.6637  -3.6540  -3.6299  -3.6279  -3.5831
    -3.5720  -3.5420  -3.4915  -3.4856  -3.4832  -3.4816  -3.4580  -3.4548
    -3.4529  -3.4516  -3.4181  -3.4105  -3.4089  -3.4086  -3.4081  -3.4056
    -3.3925  -3.3897  -3.3447  -3.3424  -3.3212  -3.3161  -3.3041  -3.3027
    -3.3003  -3.2993  -3.2813  -3.2740  -3.2705  -3.2591  -3.2581  -3.2338
    -3.2297  -3.2212  -3.2190  -3.1832  -3.1750  -3.1746  -3.1733  -3.1358
    -3.0848  -3.0344  -3.0339  -3.0331  -3.0261  -2.5538  -2.5378  -1.4170
    -1.4110  -1.4090  -1.4049  -1.2954  -1.2717  -1.2547  -1.2182  -0.7767
    -0.7569  -0.7182  -0.6102

          k =-0.0489-0.0282 0.0000 ( 79262 PWs)   bands (ev):

  -114.0491-113.9983-113.9963-113.9941-113.9931-113.9915-113.9897-113.9877
  -113.9874-113.9865-113.9865-113.9859-113.9856-113.9849-113.9843-113.9837
  -113.9832-113.9826-113.9823-113.9821-113.9820-113.9817-113.9813-113.9808
  -113.9803-113.9802-113.9797-113.9791-113.9787-113.9777-113.9761-113.9729
   -71.4828 -71.4790 -71.4566 -71.4553 -71.4535 -71.4505 -71.4504 -71.4489
   -71.4485 -71.4483 -71.4476 -71.4456 -71.4442 -71.4427 -71.4412 -71.4403
   -71.4400 -71.4373 -71.4368 -71.4361 -71.4320 -71.4311 -71.4303 -71.4294
   -71.4278 -71.4263 -71.4181 -71.4180 -71.4153 -71.4137 -71.4107 -71.4088
   -71.4073 -71.4071 -71.4055 -71.4039 -71.4030 -71.4023 -71.4006 -71.3997
   -71.3993 -71.3979 -71.3971 -71.3965 -71.3961 -71.3950 -71.3939 -71.3935
   -71.3905 -71.3898 -71.3895 -71.3889 -71.3882 -71.3874 -71.3864 -71.3857
   -71.3848 -71.3836 -71.3823 -71.3812 -71.3801 -71.3790 -71.3776 -71.3725
   -71.3710 -71.3490 -71.3485 -71.3448 -71.3400 -71.3367 -71.3333 -71.3319
   -71.3307 -71.3298 -71.3288 -71.3258 -71.3246 -71.3213 -71.3193 -71.3175
   -71.3156 -71.3099 -71.3067 -71.3064 -71.3055 -71.3049 -71.3033 -71.3025
   -71.3020 -71.3017 -71.3007 -71.2991 -71.2987 -71.2980 -71.2974 -71.2969
   -24.9194 -24.5109 -22.5711 -22.1151 -17.6153 -15.4018 -13.7010 -12.7367
   -10.8094  -9.4983  -9.4144  -9.2191  -9.2024  -8.9959  -8.5988  -8.3222
    -8.2822  -8.2634  -7.7978  -7.4107  -6.9497  -6.8809  -6.8349  -6.8326
    -6.8306  -6.7813  -6.6111  -6.5789  -6.5187  -6.5096  -6.4397  -5.9773
    -5.9755  -5.9734  -5.9727  -5.9074  -5.9027  -5.8599  -5.7342  -5.7284
    -5.6697  -5.6675  -5.6667  -5.6652  -5.5033  -5.5018  -5.4146  -5.4123
    -5.4108  -5.4082  -5.4067  -5.4045  -5.4033  -5.4019  -5.3796  -5.3768
    -5.3482  -5.3447  -5.2168  -5.2140  -5.1874  -5.1632  -5.1611  -5.1570
    -5.1172  -4.8221  -4.8200  -4.7635  -4.7590  -4.7072  -4.6351  -4.6322
    -4.6286  -4.6277  -4.6249  -4.6235  -4.6231  -4.6223  -4.6213  -4.6185
    -4.6126  -4.6117  -4.6009  -4.6001  -4.5783  -4.5763  -4.5737  -4.5684
    -4.5658  -4.5617  -4.5298  -4.5250  -4.5022  -4.5014  -4.4609  -4.4585
    -4.3930  -4.3924  -4.3894  -4.3869  -4.3217  -4.3207  -4.2686  -4.2664
    -4.2657  -4.2646  -4.2602  -4.2591  -4.2573  -4.2570  -4.2541  -4.2513
    -4.2031  -4.1979  -4.0788  -4.0698  -4.0659  -4.0613  -4.0598  -4.0594
    -4.0494  -4.0384  -4.0264  -4.0211  -4.0040  -4.0013  -3.9955  -3.9952
    -3.9933  -3.9884  -3.8844  -3.8791  -3.8659  -3.8501  -3.8469  -3.8459
    -3.8375  -3.8280  -3.7964  -3.7638  -3.7453  -3.7160  -3.6844  -3.6770
    -3.6751  -3.6692  -3.6676  -3.6666  -3.6543  -3.6298  -3.6280  -3.5867
    -3.5728  -3.5399  -3.4884  -3.4843  -3.4836  -3.4819  -3.4594  -3.4564
    -3.4516  -3.4504  -3.4172  -3.4118  -3.4107  -3.4074  -3.4064  -3.4044
    -3.3928  -3.3901  -3.3459  -3.3425  -3.3222  -3.3166  -3.3034  -3.3024
    -3.2998  -3.2986  -3.2818  -3.2757  -3.2693  -3.2604  -3.2559  -3.2344
    -3.2292  -3.2216  -3.2182  -3.1832  -3.1766  -3.1747  -3.1727  -3.1314
    -3.0906  -3.0349  -3.0338  -3.0326  -3.0263  -2.5650  -2.5222  -1.4143
    -1.4116  -1.4096  -1.4067  -1.2960  -1.2674  -1.2595  -1.2201  -0.7682
    -0.7530  -0.7061  -0.6387

     the Fermi energy is    -1.4814 ev

!    total energy              =  -13113.53241077 Ry
     Harris-Foulkes estimate   =  -13113.53241062 Ry
     estimated scf accuracy    <       0.00000036 Ry

     The total energy is the sum of the following terms:

     one-electron contribution = -113985.52498169 Ry
     hartree contribution      =   56980.94192156 Ry
     xc contribution           =   -1291.73614609 Ry
     ewald contribution        =   45182.84813025 Ry
     smearing contrib. (-TS)   =      -0.06133480 Ry

     convergence has been achieved in  50 iterations

     Forces acting on atoms (Ry/au):


     negative rho (up, down):  4.732E-03 0.000E+00
     atom    1 type  1   force =    -0.00000970   -0.00001639    0.00055947
     atom    2 type  1   force =    -0.00013267   -0.00020161   -0.00085557
     atom    3 type  1   force =    -0.00008374   -0.00021884    0.00092483
     atom    4 type  1   force =    -0.00013107    0.00077724   -0.00104929
     atom    5 type  1   force =    -0.00015388    0.00007032    0.00089054
     atom    6 type  1   force =     0.00091870   -0.00031156    0.00002568
     atom    7 type  1   force =    -0.00008686   -0.00005749    0.00046332
     atom    8 type  1   force =    -0.00016988    0.00000775   -0.00155808
     atom    9 type  1   force =     0.00002104    0.00008218    0.00056778
     atom   10 type  1   force =     0.00020173    0.00011792   -0.00077322
     atom   11 type  1   force =     0.00005171    0.00025336    0.00085742
     atom   12 type  1   force =    -0.00009062   -0.00396304   -0.00348025
     atom   13 type  1   force =     0.00020935   -0.00016441   -0.00039346
     atom   14 type  1   force =    -0.00759057    0.00433958   -0.01463420
     atom   15 type  1   force =    -0.00002509    0.00003055    0.00084977
     atom   16 type  1   force =     0.00039958   -0.00027047   -0.00033627
     atom   17 type  1   force =    -0.00014361   -0.00000363    0.00071289
     atom   18 type  1   force =    -0.00019099    0.00013003   -0.00086560
     atom   19 type  1   force =    -0.00002865    0.00024884    0.00107452
     atom   20 type  1   force =     0.00144056   -0.00099845   -0.00242186
     atom   21 type  1   force =     0.00012713    0.00006045    0.00118532
     atom   22 type  1   force =     0.00298356    0.00199258   -0.00239303
     atom   23 type  1   force =     0.00036161   -0.00010345   -0.00003485
     atom   24 type  1   force =    -0.00034727    0.00054369   -0.00167739
     atom   25 type  1   force =     0.00012486    0.00012984    0.00067097
     atom   26 type  1   force =     0.00014191   -0.00005997   -0.00113087
     atom   27 type  1   force =     0.00005424    0.00004930   -0.00001355
     atom   28 type  1   force =    -0.00029581   -0.00002421   -0.00103441
     atom   29 type  1   force =    -0.00020629   -0.00013648    0.00107882
     atom   30 type  1   force =     0.00011318   -0.00003598   -0.00082028
     atom   31 type  1   force =    -0.00027164   -0.00020753    0.00114813
     atom   32 type  1   force =     0.00013211    0.00015546   -0.00066430
     atom   33 type  2   force =     0.01526601    0.00130688   -0.01036510
     atom   34 type  2   force =     0.00155490    0.02838259   -0.01762505
     atom   35 type  2   force =     0.02325683   -0.00090971   -0.02422761
     atom   36 type  2   force =    -0.00038588    0.00519269   -0.01334808
     atom   37 type  3   force =    -0.00326915   -0.00894772    0.01604741
     atom   38 type  3   force =     0.00393785   -0.01904632    0.01087326
     atom   39 type  3   force =    -0.02792309    0.00970281    0.03254608
     atom   40 type  3   force =     0.00139487   -0.00168592    0.02870668
     atom   41 type  3   force =     0.00160229   -0.00022617   -0.00880793
     atom   42 type  4   force =    -0.00039020    0.00424224   -0.00458974
     atom   43 type  4   force =     0.00185933   -0.00201625   -0.00486356
     atom   44 type  4   force =    -0.00039941   -0.00533826   -0.00612571
     atom   45 type  4   force =     0.00050852    0.00611797    0.00755638
     atom   46 type  4   force =    -0.01261944   -0.00109024    0.01110311
     atom   47 type  4   force =    -0.00171636   -0.01790018    0.00624687

     Total force =     0.087923     Total SCF correction =     0.003995
 !ASE

     Writing output data file calc.save
     Check: negative starting charge=   -0.010062
     NEW-OLD atomic charge density approx. for the potential
     Check: negative starting charge=   -0.009993

     negative rho (up, down):  5.708E-03 0.000E+00

     total cpu time spent up to now is     5006.5 secs

     per-process dynamical memory:   420.1 Mb

     Self-consistent Calculation

     iteration #  1     ecut=    40.42 Ry     beta=0.20
     Davidson diagonalization with overlap
     ethr =  1.37E-10,  avg # of iterations = 13.2

     negative rho (up, down):  4.250E-03 0.000E+00

     total cpu time spent up to now is     5307.9 secs

     total energy              =  -13113.35199750 Ry
     Harris-Foulkes estimate   =  -13113.36343209 Ry
     estimated scf accuracy    <       0.10243707 Ry

     iteration #  2     ecut=    40.42 Ry     beta=0.20
     Davidson diagonalization with overlap
     ethr =  1.56E-05,  avg # of iterations =  2.0

     negative rho (up, down):  4.248E-03 0.000E+00

     total cpu time spent up to now is     5409.9 secs

     total energy              =  -13113.31891453 Ry
     Harris-Foulkes estimate   =  -13113.35241061 Ry
     estimated scf accuracy    <       0.07315281 Ry

     iteration #  3     ecut=    40.42 Ry     beta=0.20
     Davidson diagonalization with overlap
     ethr =  1.11E-05,  avg # of iterations =  3.0

     negative rho (up, down):  3.057E-03 0.000E+00

     total cpu time spent up to now is     5513.4 secs

     total energy              =  -13113.32707468 Ry
     Harris-Foulkes estimate   =  -13113.32820845 Ry
     estimated scf accuracy    <       0.01091737 Ry

     iteration #  4     ecut=    40.42 Ry     beta=0.20
     Davidson diagonalization with overlap
     ethr =  1.66E-06,  avg # of iterations =  2.0

     negative rho (up, down):  2.494E-03 0.000E+00

     total cpu time spent up to now is     5616.7 secs

     total energy              =  -13113.32585141 Ry
     Harris-Foulkes estimate   =  -13113.32742890 Ry
     estimated scf accuracy    <       0.00732147 Ry

     iteration #  5     ecut=    40.42 Ry     beta=0.20
     Davidson diagonalization with overlap
     ethr =  1.11E-06,  avg # of iterations =  3.0

     negative rho (up, down):  1.851E-03 0.000E+00

     total cpu time spent up to now is     5719.6 secs

     total energy              =  -13113.32575848 Ry
     Harris-Foulkes estimate   =  -13113.32627092 Ry
     estimated scf accuracy    <       0.00418475 Ry

     iteration #  6     ecut=    40.42 Ry     beta=0.20
     Davidson diagonalization with overlap
     ethr =  6.36E-07,  avg # of iterations =  2.2

     negative rho (up, down):  1.458E-03 0.000E+00

     total cpu time spent up to now is     5822.2 secs

     total energy              =  -13113.32553031 Ry
     Harris-Foulkes estimate   =  -13113.32588218 Ry
     estimated scf accuracy    <       0.00293280 Ry

     iteration #  7     ecut=    40.42 Ry     beta=0.20
     Davidson diagonalization with overlap
     ethr =  4.46E-07,  avg # of iterations =  3.0

     negative rho (up, down):  1.236E-03 0.000E+00

     total cpu time spent up to now is     5925.6 secs

     total energy              =  -13113.32532313 Ry
     Harris-Foulkes estimate   =  -13113.32564291 Ry
     estimated scf accuracy    <       0.00236264 Ry

     iteration #  8     ecut=    40.42 Ry     beta=0.20
     Davidson diagonalization with overlap
     ethr =  3.59E-07,  avg # of iterations =  2.0

     negative rho (up, down):  1.114E-03 0.000E+00

     total cpu time spent up to now is     6025.4 secs

     total energy              =  -13113.32528395 Ry
     Harris-Foulkes estimate   =  -13113.32540572 Ry
     estimated scf accuracy    <       0.00200016 Ry

     iteration #  9     ecut=    40.42 Ry     beta=0.20
     Davidson diagonalization with overlap
     ethr =  3.04E-07,  avg # of iterations =  1.5

     negative rho (up, down):  1.285E-03 0.000E+00

     total cpu time spent up to now is     6120.8 secs

     total energy              =  -13113.32505078 Ry
     Harris-Foulkes estimate   =  -13113.32530762 Ry
     estimated scf accuracy    <       0.00169146 Ry

     iteration # 10     ecut=    40.42 Ry     beta=0.20
     Davidson diagonalization with overlap
     ethr =  2.57E-07,  avg # of iterations =  3.0

     negative rho (up, down):  2.262E-03 0.000E+00

     total cpu time spent up to now is     6219.9 secs

     total energy              =  -13113.32494999 Ry
     Harris-Foulkes estimate   =  -13113.32511908 Ry
     estimated scf accuracy    <       0.00133991 Ry

     iteration # 11     ecut=    40.42 Ry     beta=0.20
     Davidson diagonalization with overlap
     ethr =  2.04E-07,  avg # of iterations =  2.0

     negative rho (up, down):  7.424E-03 0.000E+00

     total cpu time spent up to now is     6320.4 secs

     total energy              =  -13113.32470380 Ry
     Harris-Foulkes estimate   =  -13113.32497970 Ry
     estimated scf accuracy    <       0.00092548 Ry

     iteration # 12     ecut=    40.42 Ry     beta=0.20
     Davidson diagonalization with overlap
     ethr =  1.41E-07,  avg # of iterations =  3.8

     negative rho (up, down):  7.943E-03 0.000E+00

     total cpu time spent up to now is     6421.9 secs

     total energy              =  -13113.32472833 Ry
     Harris-Foulkes estimate   =  -13113.32478585 Ry
     estimated scf accuracy    <       0.00039440 Ry

     iteration # 13     ecut=    40.42 Ry     beta=0.20
     Davidson diagonalization with overlap
     ethr =  5.99E-08,  avg # of iterations =  2.5

     negative rho (up, down):  8.119E-03 0.000E+00

     total cpu time spent up to now is     6519.8 secs

     total energy              =  -13113.32466529 Ry
     Harris-Foulkes estimate   =  -13113.32474359 Ry
     estimated scf accuracy    <       0.00022880 Ry

     iteration # 14     ecut=    40.42 Ry     beta=0.20
     Davidson diagonalization with overlap
     ethr =  3.48E-08,  avg # of iterations =  3.0

     negative rho (up, down):  7.713E-03 0.000E+00

     total cpu time spent up to now is     6622.9 secs

     total energy              =  -13113.32466256 Ry
     Harris-Foulkes estimate   =  -13113.32468435 Ry
     estimated scf accuracy    <       0.00008458 Ry

     iteration # 15     ecut=    40.42 Ry     beta=0.20
     Davidson diagonalization with overlap
     ethr =  1.29E-08,  avg # of iterations =  2.8

     negative rho (up, down):  6.348E-03 0.000E+00

     total cpu time spent up to now is     6716.4 secs

     total energy              =  -13113.32463267 Ry
     Harris-Foulkes estimate   =  -13113.32466561 Ry
     estimated scf accuracy    <       0.00004922 Ry

     iteration # 16     ecut=    40.42 Ry     beta=0.20
     Davidson diagonalization with overlap
     ethr =  7.48E-09,  avg # of iterations =  3.0

     negative rho (up, down):  5.966E-03 0.000E+00

     total cpu time spent up to now is     6822.7 secs

     total energy              =  -13113.32463331 Ry
     Harris-Foulkes estimate   =  -13113.32463721 Ry
     estimated scf accuracy    <       0.00001433 Ry

     iteration # 17     ecut=    40.42 Ry     beta=0.20
     Davidson diagonalization with overlap
     ethr =  2.18E-09,  avg # of iterations =  2.0

     negative rho (up, down):  5.384E-03 0.000E+00

     total cpu time spent up to now is     6913.8 secs

     total energy              =  -13113.32462945 Ry
     Harris-Foulkes estimate   =  -13113.32463365 Ry
     estimated scf accuracy    <       0.00000993 Ry

     iteration # 18     ecut=    40.42 Ry     beta=0.20
     Davidson diagonalization with overlap
     ethr =  1.51E-09,  avg # of iterations =  2.0

     negative rho (up, down):  5.279E-03 0.000E+00

     total cpu time spent up to now is     7008.6 secs

     total energy              =  -13113.32462848 Ry
     Harris-Foulkes estimate   =  -13113.32462997 Ry
     estimated scf accuracy    <       0.00000479 Ry

     iteration # 19     ecut=    40.42 Ry     beta=0.20
     Davidson diagonalization with overlap
     ethr =  7.28E-10,  avg # of iterations =  3.0

     negative rho (up, down):  5.065E-03 0.000E+00

     total cpu time spent up to now is     7107.4 secs

     total energy              =  -13113.32462815 Ry
     Harris-Foulkes estimate   =  -13113.32462871 Ry
     estimated scf accuracy    <       0.00000230 Ry

     iteration # 20     ecut=    40.42 Ry     beta=0.20
     Davidson diagonalization with overlap
     ethr =  3.49E-10,  avg # of iterations =  3.0

     negative rho (up, down):  4.795E-03 0.000E+00

     total cpu time spent up to now is     7195.6 secs

     End of self-consistent calculation

          k = 0.0000 0.0000 0.0000 ( 79441 PWs)   bands (ev):

  -113.7880-113.7358-113.7263-113.7239-113.7222-113.7212-113.7204-113.7197
  -113.7188-113.7181-113.7169-113.7162-113.7158-113.7155-113.7145-113.7143
  -113.7140-113.7134-113.7132-113.7127-113.7122-113.7120-113.7113-113.7111
  -113.7108-113.7100-113.7095-113.7091-113.7087-113.7080-113.7059-113.6997
   -71.2187 -71.2175 -71.1936 -71.1897 -71.1876 -71.1866 -71.1833 -71.1815
   -71.1766 -71.1761 -71.1745 -71.1737 -71.1735 -71.1734 -71.1714 -71.1706
   -71.1699 -71.1695 -71.1614 -71.1606 -71.1528 -71.1515 -71.1508 -71.1497
   -71.1485 -71.1473 -71.1467 -71.1464 -71.1450 -71.1446 -71.1443 -71.1436
   -71.1434 -71.1426 -71.1418 -71.1415 -71.1379 -71.1375 -71.1369 -71.1361
   -71.1355 -71.1348 -71.1340 -71.1323 -71.1310 -71.1293 -71.1235 -71.1228
   -71.1205 -71.1203 -71.1197 -71.1194 -71.1183 -71.1172 -71.1165 -71.1116
   -71.1104 -71.1093 -71.1088 -71.1081 -71.1071 -71.1067 -71.1060 -71.0995
   -71.0989 -71.0844 -71.0780 -71.0732 -71.0714 -71.0709 -71.0702 -71.0691
   -71.0621 -71.0572 -71.0566 -71.0552 -71.0549 -71.0540 -71.0532 -71.0527
   -71.0472 -71.0400 -71.0376 -71.0373 -71.0364 -71.0363 -71.0356 -71.0349
   -71.0335 -71.0322 -71.0315 -71.0306 -71.0295 -71.0284 -71.0279 -71.0242
   -27.0109 -25.4669 -22.7324 -22.5690 -17.5905 -14.9296 -13.0427 -11.5009
   -10.3152  -9.9526  -9.6932  -9.4532  -9.4169  -9.0429  -8.9289  -8.4567
    -7.7292  -7.6480  -7.6227  -7.6159  -7.6150  -7.6135  -7.5934  -7.3630
    -7.1241  -6.7512  -6.6300  -5.8458  -5.7519  -5.7448  -5.7417  -5.7232
    -5.7214  -5.7168  -5.5919  -5.5877  -5.5863  -5.5829  -5.5810  -5.5797
    -5.5153  -5.5086  -5.4979  -5.4958  -5.4936  -5.4901  -5.2681  -5.2664
    -5.2651  -5.1148  -4.9894  -4.9884  -4.9862  -4.9802  -4.9786  -4.9765
    -4.9399  -4.9324  -4.9310  -4.9264  -4.9258  -4.9149  -4.8982  -4.7830
    -4.7347  -4.7299  -4.7287  -4.7246  -4.7233  -4.6716  -4.4273  -4.4247
    -4.4225  -4.3977  -4.3929  -4.3896  -4.3887  -4.3868  -4.3849  -4.3276
    -4.3178  -4.3122  -4.3113  -4.3089  -4.3053  -4.3015  -4.2820  -4.2753
    -4.2738  -4.2710  -4.2675  -4.2619  -4.1839  -4.1824  -4.1780  -4.1771
    -4.1764  -4.1727  -4.1717  -4.1709  -4.1694  -4.1687  -4.1677  -4.1600
    -4.1597  -4.1504  -4.0828  -4.0828  -4.0380  -4.0163  -4.0133  -4.0116
    -4.0059  -4.0053  -3.9911  -3.9901  -3.9846  -3.9833  -3.9823  -3.9800
    -3.9607  -3.8564  -3.8559  -3.8506  -3.8085  -3.7585  -3.7565  -3.7509
    -3.7499  -3.7473  -3.7469  -3.5472  -3.5415  -3.5376  -3.5366  -3.5345
    -3.5328  -3.5301  -3.5252  -3.5235  -3.5212  -3.5123  -3.5064  -3.5025
    -3.5006  -3.4872  -3.3655  -3.3652  -3.3573  -3.3513  -3.3461  -3.3455
    -3.3453  -3.3435  -3.3416  -3.3313  -3.3273  -3.3259  -3.3249  -3.3226
    -3.3217  -3.2623  -3.2520  -3.2511  -3.2496  -3.2480  -3.2460  -3.2443
    -3.2321  -3.2194  -3.0901  -3.0886  -3.0878  -3.0088  -3.0047  -3.0023
    -3.0015  -3.0012  -3.0010  -2.9994  -2.9976  -2.9203  -2.9148  -2.9145
    -2.9138  -2.9130  -2.9083  -2.8111  -2.8102  -2.8079  -2.7567  -2.7562
    -2.7547  -2.0747  -2.0573  -2.0535  -2.0496  -2.0256  -1.9362  -1.3252
    -1.1378  -1.1355  -1.1309  -1.1288  -1.1253  -1.1078  -0.9847  -0.9813
    -0.9637   0.1319   0.1342

          k = 0.0000-0.0565 0.0000 ( 79262 PWs)   bands (ev):

  -113.7880-113.7358-113.7254-113.7252-113.7223-113.7210-113.7201-113.7193
  -113.7191-113.7177-113.7167-113.7165-113.7157-113.7153-113.7151-113.7146
  -113.7143-113.7135-113.7130-113.7124-113.7121-113.7115-113.7113-113.7110
  -113.7108-113.7102-113.7100-113.7090-113.7086-113.7080-113.7059-113.6997
   -71.2180 -71.2168 -71.1885 -71.1855 -71.1851 -71.1838 -71.1812 -71.1800
   -71.1782 -71.1779 -71.1772 -71.1768 -71.1754 -71.1722 -71.1712 -71.1701
   -71.1687 -71.1678 -71.1654 -71.1646 -71.1630 -71.1618 -71.1607 -71.1596
   -71.1583 -71.1554 -71.1491 -71.1470 -71.1462 -71.1435 -71.1420 -71.1396
   -71.1383 -71.1371 -71.1368 -71.1356 -71.1339 -71.1323 -71.1316 -71.1306
   -71.1295 -71.1287 -71.1279 -71.1271 -71.1251 -71.1244 -71.1239 -71.1222
   -71.1210 -71.1200 -71.1187 -71.1182 -71.1177 -71.1175 -71.1161 -71.1153
   -71.1145 -71.1123 -71.1118 -71.1114 -71.1113 -71.1084 -71.1072 -71.1027
   -71.1014 -71.0820 -71.0795 -71.0769 -71.0729 -71.0693 -71.0656 -71.0643
   -71.0627 -71.0618 -71.0605 -71.0561 -71.0544 -71.0538 -71.0524 -71.0499
   -71.0453 -71.0414 -71.0394 -71.0377 -71.0367 -71.0358 -71.0348 -71.0339
   -71.0331 -71.0326 -71.0314 -71.0306 -71.0300 -71.0286 -71.0277 -71.0242
   -27.0109 -25.4669 -22.7324 -22.5690 -17.5905 -14.9296 -13.0426 -11.5008
   -10.3154  -9.9516  -9.6932  -9.4405  -9.0471  -8.9707  -8.9423  -8.8977
    -8.4568  -8.0367  -8.0243  -7.6812  -7.3872  -7.1369  -6.6368  -6.5808
    -6.5753  -6.5716  -6.5599  -6.3408  -6.3356  -6.2559  -6.2502  -5.8426
    -5.7177  -5.7160  -5.7123  -5.7101  -5.6449  -5.6317  -5.4705  -5.4680
    -5.4110  -5.4043  -5.4024  -5.3989  -5.2472  -5.2407  -5.1863  -5.1593
    -5.1492  -5.1450  -5.1424  -5.1401  -5.1386  -5.1371  -5.1258  -5.1173
    -5.0970  -5.0840  -5.0412  -4.9555  -4.9468  -4.9075  -4.9026  -4.8979
    -4.8927  -4.8779  -4.7302  -4.5590  -4.5501  -4.5009  -4.4898  -4.3685
    -4.3636  -4.3602  -4.3570  -4.3549  -4.3536  -4.3530  -4.3514  -4.3490
    -4.3450  -4.3441  -4.3383  -4.3320  -4.3271  -4.3164  -4.3087  -4.3049
    -4.2976  -4.2965  -4.2864  -4.2675  -4.2561  -4.2330  -4.2265  -4.1904
    -4.1866  -4.1259  -4.1248  -4.1186  -4.1143  -4.0575  -4.0516  -4.0154
    -4.0072  -3.9996  -3.9971  -3.9933  -3.9930  -3.9917  -3.9899  -3.9872
    -3.9857  -3.9649  -3.9361  -3.9302  -3.8791  -3.8185  -3.8066  -3.7979
    -3.7945  -3.7918  -3.7890  -3.7708  -3.7596  -3.7559  -3.7467  -3.7327
    -3.7292  -3.7276  -3.7251  -3.7192  -3.6857  -3.6149  -3.6073  -3.5804
    -3.5774  -3.5759  -3.5738  -3.5539  -3.5336  -3.4787  -3.4694  -3.4149
    -3.4090  -3.4059  -3.3991  -3.3944  -3.3934  -3.3828  -3.3553  -3.3508
    -3.3327  -3.3031  -3.2890  -3.2177  -3.2149  -3.2133  -3.2109  -3.1834
    -3.1824  -3.1796  -3.1790  -3.1418  -3.1398  -3.1385  -3.1356  -3.1349
    -3.1336  -3.1199  -3.1155  -3.0736  -3.0689  -3.0478  -3.0430  -3.0324
    -3.0299  -3.0278  -3.0243  -3.0009  -2.9978  -2.9868  -2.9859  -2.9634
    -2.9587  -2.9482  -2.9468  -2.9089  -2.9047  -2.9029  -2.9029  -2.8623
    -2.8211  -2.7654  -2.7647  -2.7606  -2.7534  -2.2926  -2.2390  -1.1480
    -1.1431  -1.1407  -1.1387  -1.0123  -0.9973  -0.9698  -0.9350  -0.4813
    -0.4737  -0.4416  -0.3810

          k = 0.0489-0.0282 0.0000 ( 79262 PWs)   bands (ev):

  -113.7880-113.7358-113.7257-113.7247-113.7221-113.7215-113.7202-113.7194
  -113.7188-113.7177-113.7166-113.7165-113.7159-113.7154-113.7145-113.7144
  -113.7142-113.7137-113.7136-113.7126-113.7121-113.7116-113.7112-113.7109
  -113.7108-113.7101-113.7098-113.7092-113.7086-113.7080-113.7059-113.6997
   -71.2178 -71.2170 -71.1874 -71.1868 -71.1857 -71.1830 -71.1802 -71.1798
   -71.1782 -71.1778 -71.1777 -71.1766 -71.1762 -71.1722 -71.1711 -71.1696
   -71.1689 -71.1676 -71.1659 -71.1652 -71.1628 -71.1617 -71.1605 -71.1601
   -71.1575 -71.1559 -71.1499 -71.1475 -71.1457 -71.1426 -71.1421 -71.1392
   -71.1383 -71.1377 -71.1370 -71.1355 -71.1331 -71.1327 -71.1313 -71.1299
   -71.1291 -71.1285 -71.1281 -71.1278 -71.1255 -71.1241 -71.1234 -71.1231
   -71.1200 -71.1198 -71.1191 -71.1187 -71.1179 -71.1168 -71.1164 -71.1155
   -71.1151 -71.1133 -71.1123 -71.1113 -71.1097 -71.1081 -71.1075 -71.1023
   -71.1017 -71.0825 -71.0792 -71.0755 -71.0744 -71.0701 -71.0656 -71.0638
   -71.0628 -71.0612 -71.0593 -71.0564 -71.0551 -71.0546 -71.0529 -71.0492
   -71.0446 -71.0414 -71.0402 -71.0377 -71.0360 -71.0356 -71.0353 -71.0339
   -71.0328 -71.0325 -71.0319 -71.0304 -71.0301 -71.0286 -71.0277 -71.0242
   -27.0109 -25.4669 -22.7324 -22.5690 -17.5905 -14.9296 -13.0426 -11.5008
   -10.3152  -9.9516  -9.6931  -9.4408  -9.0467  -8.9675  -8.9445  -8.8999
    -8.4563  -8.0305  -8.0253  -7.6815  -7.3928  -7.1416  -6.6333  -6.5799
    -6.5741  -6.5729  -6.5629  -6.3437  -6.3291  -6.2511  -6.2484  -5.8407
    -5.7175  -5.7163  -5.7149  -5.7117  -5.6480  -5.6375  -5.4666  -5.4663
    -5.4119  -5.4100  -5.4026  -5.4014  -5.2471  -5.2415  -5.1836  -5.1542
    -5.1446  -5.1434  -5.1418  -5.1412  -5.1403  -5.1395  -5.1215  -5.1111
    -5.0895  -5.0807  -5.0565  -4.9558  -4.9445  -4.9137  -4.8991  -4.8976
    -4.8926  -4.8868  -4.7298  -4.5592  -4.5497  -4.4968  -4.4901  -4.3679
    -4.3644  -4.3606  -4.3564  -4.3549  -4.3530  -4.3518  -4.3517  -4.3506
    -4.3480  -4.3448  -4.3384  -4.3319  -4.3282  -4.3123  -4.3071  -4.3013
    -4.2990  -4.2975  -4.2872  -4.2698  -4.2532  -4.2322  -4.2262  -4.1916
    -4.1892  -4.1281  -4.1252  -4.1195  -4.1088  -4.0593  -4.0519  -4.0092
    -4.0052  -4.0005  -3.9967  -3.9950  -3.9930  -3.9916  -3.9893  -3.9886
    -3.9836  -3.9719  -3.9341  -3.9321  -3.8801  -3.8193  -3.8066  -3.7968
    -3.7957  -3.7910  -3.7896  -3.7716  -3.7597  -3.7518  -3.7484  -3.7336
    -3.7299  -3.7286  -3.7235  -3.7194  -3.6851  -3.6115  -3.6109  -3.5816
    -3.5769  -3.5735  -3.5721  -3.5519  -3.5339  -3.4802  -3.4719  -3.4163
    -3.4082  -3.4035  -3.3995  -3.3957  -3.3934  -3.3843  -3.3547  -3.3532
    -3.3283  -3.3003  -3.2950  -3.2203  -3.2158  -3.2121  -3.2102  -3.1834
    -3.1816  -3.1804  -3.1792  -3.1441  -3.1409  -3.1373  -3.1361  -3.1358
    -3.1302  -3.1179  -3.1162  -3.0718  -3.0691  -3.0465  -3.0437  -3.0309
    -3.0298  -3.0286  -3.0274  -2.9999  -2.9983  -2.9893  -2.9852  -2.9630
    -2.9587  -2.9494  -2.9461  -2.9109  -2.9046  -2.9032  -2.8983  -2.8699
    -2.8126  -2.7650  -2.7628  -2.7624  -2.7534  -2.2777  -2.2573  -1.1496
    -1.1429  -1.1400  -1.1359  -1.0115  -0.9956  -0.9762  -0.9329  -0.5029
    -0.4766  -0.4608  -0.3223

          k =-0.0489-0.0282 0.0000 ( 79262 PWs)   bands (ev):

  -113.7880-113.7358-113.7258-113.7245-113.7227-113.7215-113.7201-113.7190
  -113.7184-113.7178-113.7169-113.7165-113.7159-113.7153-113.7150-113.7148
  -113.7138-113.7135-113.7132-113.7126-113.7122-113.7116-113.7115-113.7109
  -113.7106-113.7101-113.7097-113.7091-113.7087-113.7080-113.7059-113.6997
   -71.2183 -71.2166 -71.1891 -71.1851 -71.1838 -71.1833 -71.1808 -71.1797
   -71.1790 -71.1779 -71.1767 -71.1763 -71.1760 -71.1735 -71.1712 -71.1705
   -71.1699 -71.1672 -71.1656 -71.1654 -71.1626 -71.1618 -71.1611 -71.1603
   -71.1574 -71.1557 -71.1485 -71.1471 -71.1452 -71.1437 -71.1419 -71.1395
   -71.1391 -71.1371 -71.1364 -71.1352 -71.1339 -71.1322 -71.1317 -71.1298
   -71.1288 -71.1283 -71.1276 -71.1266 -71.1259 -71.1240 -71.1233 -71.1226
   -71.1214 -71.1205 -71.1194 -71.1189 -71.1187 -71.1171 -71.1162 -71.1153
   -71.1140 -71.1131 -71.1126 -71.1107 -71.1094 -71.1084 -71.1083 -71.1034
   -71.1003 -71.0814 -71.0803 -71.0772 -71.0723 -71.0700 -71.0648 -71.0642
   -71.0628 -71.0620 -71.0592 -71.0579 -71.0561 -71.0536 -71.0510 -71.0481
   -71.0466 -71.0425 -71.0385 -71.0370 -71.0366 -71.0361 -71.0350 -71.0345
   -71.0329 -71.0324 -71.0317 -71.0308 -71.0296 -71.0284 -71.0279 -71.0242
   -27.0109 -25.4669 -22.7324 -22.5690 -17.5905 -14.9296 -13.0426 -11.5008
   -10.3153  -9.9515  -9.6932  -9.4406  -9.0472  -8.9708  -8.9413  -8.8991
    -8.4564  -8.0332  -8.0243  -7.6819  -7.3908  -7.1399  -6.6360  -6.5825
    -6.5737  -6.5720  -6.5580  -6.3437  -6.3290  -6.2547  -6.2494  -5.8440
    -5.7186  -5.7175  -5.7109  -5.7096  -5.6437  -5.6393  -5.4712  -5.4649
    -5.4087  -5.4074  -5.4035  -5.4006  -5.2473  -5.2406  -5.1824  -5.1597
    -5.1500  -5.1431  -5.1426  -5.1405  -5.1391  -5.1367  -5.1193  -5.1181
    -5.0929  -5.0851  -5.0429  -4.9541  -4.9465  -4.9107  -4.9036  -4.8968
    -4.8917  -4.8873  -4.7276  -4.5586  -4.5502  -4.4982  -4.4900  -4.3687
    -4.3655  -4.3590  -4.3578  -4.3538  -4.3528  -4.3522  -4.3509  -4.3503
    -4.3455  -4.3446  -4.3380  -4.3319  -4.3273  -4.3147  -4.3069  -4.3064
    -4.2980  -4.2975  -4.2860  -4.2665  -4.2565  -4.2327  -4.2274  -4.1907
    -4.1874  -4.1254  -4.1241  -4.1170  -4.1162  -4.0568  -4.0527  -4.0157
    -4.0077  -3.9998  -3.9969  -3.9936  -3.9923  -3.9914  -3.9897  -3.9868
    -3.9849  -3.9662  -3.9379  -3.9288  -3.8813  -3.8196  -3.8055  -3.7983
    -3.7938  -3.7917  -3.7897  -3.7710  -3.7598  -3.7536  -3.7464  -3.7330
    -3.7288  -3.7266  -3.7257  -3.7202  -3.6860  -3.6151  -3.6077  -3.5820
    -3.5767  -3.5729  -3.5718  -3.5518  -3.5359  -3.4845  -3.4682  -3.4152
    -3.4085  -3.4067  -3.3982  -3.3955  -3.3943  -3.3841  -3.3550  -3.3511
    -3.3322  -3.3029  -3.2879  -3.2169  -3.2145  -3.2128  -3.2108  -3.1844
    -3.1833  -3.1789  -3.1782  -3.1420  -3.1403  -3.1383  -3.1372  -3.1341
    -3.1309  -3.1194  -3.1165  -3.0729  -3.0694  -3.0488  -3.0435  -3.0325
    -3.0292  -3.0277  -3.0245  -3.0026  -2.9963  -2.9875  -2.9854  -2.9636
    -2.9585  -2.9484  -2.9466  -2.9086  -2.9056  -2.9023  -2.9020  -2.8642
    -2.8186  -2.7651  -2.7650  -2.7612  -2.7525  -2.2889  -2.2429  -1.1478
    -1.1426  -1.1402  -1.1375  -1.0164  -0.9904  -0.9764  -0.9364  -0.4928
    -0.4767  -0.4470  -0.3498

     the Fermi energy is    -1.2105 ev

!    total energy              =  -13113.32462842 Ry
     Harris-Foulkes estimate   =  -13113.32462835 Ry
     estimated scf accuracy    <       0.00000070 Ry

     The total energy is the sum of the following terms:

     one-electron contribution = -114081.94331449 Ry
     hartree contribution      =   57034.84453012 Ry
     xc contribution           =   -1292.02944938 Ry
     ewald contribution        =   45225.86433948 Ry
     smearing contrib. (-TS)   =      -0.06073415 Ry

     convergence has been achieved in  20 iterations

     Forces acting on atoms (Ry/au):


     negative rho (up, down):  4.795E-03 0.000E+00
     atom    1 type  1   force =     0.00012307   -0.00011129    0.00034936
     atom    2 type  1   force =    -0.00037659   -0.00040766   -0.00047123
     atom    3 type  1   force =     0.00009526    0.00000636    0.00047256
     atom    4 type  1   force =    -0.00038594    0.00016068   -0.00090421
     atom    5 type  1   force =    -0.00004746    0.00015847    0.00071019
     atom    6 type  1   force =    -0.00060609   -0.00017691    0.00014127
     atom    7 type  1   force =    -0.00020680   -0.00009752    0.00042844
     atom    8 type  1   force =     0.00000372   -0.00003312   -0.00118565
     atom    9 type  1   force =     0.00001865    0.00021008    0.00050162
     atom   10 type  1   force =     0.00027424   -0.00052571   -0.00034033
     atom   11 type  1   force =    -0.00009434    0.00019208    0.00039475
     atom   12 type  1   force =    -0.00018659   -0.00128099   -0.00066576
     atom   13 type  1   force =    -0.00073552   -0.00072335   -0.00203122
     atom   14 type  1   force =    -0.00286220    0.00145757   -0.00693686
     atom   15 type  1   force =     0.00014070   -0.00008339    0.00090158
     atom   16 type  1   force =    -0.00047314    0.00091306   -0.00015909
     atom   17 type  1   force =    -0.00013357   -0.00008218    0.00050697
     atom   18 type  1   force =    -0.00014189   -0.00013107   -0.00039486
     atom   19 type  1   force =     0.00008266    0.00018438    0.00030772
     atom   20 type  1   force =     0.00100440   -0.00064900   -0.00171853
     atom   21 type  1   force =     0.00064551   -0.00025599    0.00054044
     atom   22 type  1   force =     0.00070742    0.00075301   -0.00018295
     atom   23 type  1   force =     0.00031853    0.00102792   -0.00172959
     atom   24 type  1   force =    -0.00015204    0.00078147   -0.00138037
     atom   25 type  1   force =    -0.00000886   -0.00003910    0.00028234
     atom   26 type  1   force =     0.00032783    0.00000571   -0.00050793
     atom   27 type  1   force =    -0.00004468    0.00004011   -0.00024376
     atom   28 type  1   force =     0.00009148    0.00012005   -0.00050439
     atom   29 type  1   force =    -0.00018473   -0.00015998    0.00047920
     atom   30 type  1   force =     0.00064661    0.00006028   -0.00039616
     atom   31 type  1   force =    -0.00021450   -0.00012867    0.00071117
     atom   32 type  1   force =     0.00033342    0.00055879   -0.00026356
     atom   33 type  2   force =    -0.09508476    0.01895743    0.01587470
     atom   34 type  2   force =    -0.01054468   -0.09688293    0.00765526
     atom   35 type  2   force =    -0.84743376   -0.04144553    0.64353270
     atom   36 type  2   force =     0.04309530   -0.04388763    0.40067791
     atom   37 type  3   force =     0.01894364    0.03326665   -0.02613258
     atom   38 type  3   force =     0.01350047    0.15711248   -0.03594644
     atom   39 type  3   force =     0.89382438    0.02563217   -0.66135832
     atom   40 type  3   force =    -0.04359591    0.06606610   -0.46714202
     atom   41 type  3   force =    -0.00281940   -0.14406422    0.08935870
     atom   42 type  4   force =    -0.02696509   -0.03364550    0.01901724
     atom   43 type  4   force =    -0.01733416    0.01365225    0.01490000
     atom   44 type  4   force =     0.00231877    0.00094941    0.00096699
     atom   45 type  4   force =    -0.00407301    0.00391171   -0.03326672
     atom   46 type  4   force =     0.06893904   -0.01151795    0.00114178
     atom   47 type  4   force =     0.00927064    0.05015146    0.04400967

     Total force =     1.688086     Total SCF correction =     0.006032
 !ASE

     Writing output data file calc.save
     Check: negative starting charge=   -0.009993
     NEW-OLD atomic charge density approx. for the potential
     Check: negative starting charge=   -0.010059

     negative rho (up, down):  5.417E-03 0.000E+00

     total cpu time spent up to now is     7270.5 secs

     per-process dynamical memory:   430.6 Mb

     Self-consistent Calculation

     iteration #  1     ecut=    40.42 Ry     beta=0.20
     Davidson diagonalization with overlap
     ethr =  3.49E-10,  avg # of iterations = 13.2

     negative rho (up, down):  6.101E-03 0.000E+00

     total cpu time spent up to now is     7561.7 secs

     total energy              =  -13113.55681520 Ry
     Harris-Foulkes estimate   =  -13113.56588027 Ry
     estimated scf accuracy    <       0.08411399 Ry

     iteration #  2     ecut=    40.42 Ry     beta=0.20
     Davidson diagonalization with overlap
     ethr =  1.28E-05,  avg # of iterations =  1.0

     negative rho (up, down):  1.948E-02 0.000E+00

     total cpu time spent up to now is     7663.0 secs

     total energy              =  -13113.52971315 Ry
     Harris-Foulkes estimate   =  -13113.55711596 Ry
     estimated scf accuracy    <       0.06093631 Ry

     iteration #  3     ecut=    40.42 Ry     beta=0.20
     Davidson diagonalization with overlap
     ethr =  9.26E-06,  avg # of iterations =  3.0

     negative rho (up, down):  1.881E-02 0.000E+00

     total cpu time spent up to now is     7765.4 secs

     total energy              =  -13113.53649133 Ry
     Harris-Foulkes estimate   =  -13113.53725532 Ry
     estimated scf accuracy    <       0.00822202 Ry

     iteration #  4     ecut=    40.42 Ry     beta=0.20
     Davidson diagonalization with overlap
     ethr =  1.25E-06,  avg # of iterations =  2.2

     negative rho (up, down):  2.181E-02 0.000E+00

     total cpu time spent up to now is     7863.6 secs

     total energy              =  -13113.53580774 Ry
     Harris-Foulkes estimate   =  -13113.53674551 Ry
     estimated scf accuracy    <       0.00554832 Ry

     iteration #  5     ecut=    40.42 Ry     beta=0.20
     Davidson diagonalization with overlap
     ethr =  8.43E-07,  avg # of iterations =  4.0

     negative rho (up, down):  2.206E-02 0.000E+00

     total cpu time spent up to now is     7967.1 secs

     total energy              =  -13113.53575412 Ry
     Harris-Foulkes estimate   =  -13113.53608574 Ry
     estimated scf accuracy    <       0.00331068 Ry

     iteration #  6     ecut=    40.42 Ry     beta=0.20
     Davidson diagonalization with overlap
     ethr =  5.03E-07,  avg # of iterations =  2.0

     negative rho (up, down):  2.347E-02 0.000E+00

     total cpu time spent up to now is     8066.4 secs

     total energy              =  -13113.53546775 Ry
     Harris-Foulkes estimate   =  -13113.53584096 Ry
     estimated scf accuracy    <       0.00250693 Ry

     iteration #  7     ecut=    40.42 Ry     beta=0.20
     Davidson diagonalization with overlap
     ethr =  3.81E-07,  avg # of iterations =  3.0

     negative rho (up, down):  2.255E-02 0.000E+00

     total cpu time spent up to now is     8170.2 secs

     total energy              =  -13113.53545064 Ry
     Harris-Foulkes estimate   =  -13113.53561311 Ry
     estimated scf accuracy    <       0.00184461 Ry

     iteration #  8     ecut=    40.42 Ry     beta=0.20
     Davidson diagonalization with overlap
     ethr =  2.80E-07,  avg # of iterations =  1.2

     negative rho (up, down):  2.180E-02 0.000E+00

     total cpu time spent up to now is     8274.1 secs

     total energy              =  -13113.53522209 Ry
     Harris-Foulkes estimate   =  -13113.53547778 Ry
     estimated scf accuracy    <       0.00168408 Ry

     iteration #  9     ecut=    40.42 Ry     beta=0.20
     Davidson diagonalization with overlap
     ethr =  2.56E-07,  avg # of iterations =  3.0

     negative rho (up, down):  2.001E-02 0.000E+00

     total cpu time spent up to now is     8379.4 secs

     total energy              =  -13113.53512228 Ry
     Harris-Foulkes estimate   =  -13113.53526652 Ry
     estimated scf accuracy    <       0.00130942 Ry

     iteration # 10     ecut=    40.42 Ry     beta=0.20
     Davidson diagonalization with overlap
     ethr =  1.99E-07,  avg # of iterations =  2.2

     negative rho (up, down):  1.434E-02 0.000E+00

     total cpu time spent up to now is     8478.9 secs

     total energy              =  -13113.53466679 Ry
     Harris-Foulkes estimate   =  -13113.53514664 Ry
[...]
    -3.2516  -3.2515  -3.2279  -3.2253  -3.2238  -3.1950  -3.1945  -3.1639
    -3.1635  -3.1444  -3.1440  -3.1405  -3.1401  -3.0768  -3.0561  -3.0561
    -3.0332  -2.7403  -2.4717  -2.4575  -2.3271  -2.3260  -2.1554  -1.9036
    -1.8903  -1.6241  -1.3667  -1.3661  -1.3190  -1.3127  -1.3053  -0.2433
    -0.2320  -0.0646  -0.0629

          k = 0.0489-0.0282 0.0000 ( 79262 PWs)   bands (ev):

  -113.9477-113.9459-113.9433-113.9428-113.9420-113.9404-113.9396-113.9392
  -113.9387-113.9379-113.9377-113.9372-113.9368-113.9366-113.9360-113.9356
  -113.9354-113.9351-113.9344-113.9341-113.9337-113.9335-113.9334-113.9330
  -113.9328-113.9325-113.9322-113.9320-113.9316-113.9313-113.9309-113.9290
   -71.4084 -71.4082 -71.4076 -71.4061 -71.4030 -71.4017 -71.4010 -71.4003
   -71.4002 -71.3996 -71.3991 -71.3988 -71.3948 -71.3940 -71.3923 -71.3919
   -71.3882 -71.3881 -71.3878 -71.3875 -71.3832 -71.3829 -71.3827 -71.3826
   -71.3780 -71.3775 -71.3678 -71.3672 -71.3617 -71.3613 -71.3603 -71.3602
   -71.3598 -71.3582 -71.3571 -71.3567 -71.3519 -71.3512 -71.3511 -71.3508
   -71.3501 -71.3494 -71.3484 -71.3480 -71.3479 -71.3466 -71.3437 -71.3422
   -71.3413 -71.3412 -71.3410 -71.3408 -71.3394 -71.3391 -71.3383 -71.3375
   -71.3355 -71.3347 -71.3343 -71.3328 -71.3313 -71.3309 -71.3251 -71.3240
   -71.3028 -71.3015 -71.2958 -71.2950 -71.2875 -71.2854 -71.2850 -71.2849
   -71.2822 -71.2816 -71.2772 -71.2768 -71.2766 -71.2737 -71.2705 -71.2692
   -71.2623 -71.2621 -71.2600 -71.2593 -71.2582 -71.2567 -71.2561 -71.2552
   -71.2545 -71.2542 -71.2538 -71.2533 -71.2518 -71.2515 -71.2507 -71.2490
   -24.7569 -24.5188 -22.4500 -22.1961 -17.5532 -15.2690 -13.4989 -12.2813
   -10.6045  -9.3414  -9.1865  -9.1776  -9.1535  -8.9426  -8.6002  -8.2688
    -8.2572  -8.2394  -7.7625  -7.3482  -7.0322  -6.8109  -6.8045  -6.8039
    -6.8036  -6.7310  -6.5724  -6.5584  -6.4790  -6.4779  -6.3738  -5.9377
    -5.9373  -5.9370  -5.9369  -5.9254  -5.8663  -5.8644  -5.6888  -5.6878
    -5.6256  -5.6253  -5.6251  -5.6247  -5.4628  -5.4625  -5.3661  -5.3658
    -5.3657  -5.3651  -5.3632  -5.3631  -5.3620  -5.3620  -5.3358  -5.3349
    -5.3051  -5.3046  -5.1708  -5.1702  -5.1193  -5.1188  -5.1186  -5.1179
    -4.8921  -4.7762  -4.7752  -4.7259  -4.7183  -4.7124  -4.5830  -4.5825
    -4.5820  -4.5815  -4.5807  -4.5803  -4.5802  -4.5791  -4.5781  -4.5765
    -4.5678  -4.5673  -4.5564  -4.5560  -4.5322  -4.5315  -4.5304  -4.5281
    -4.5207  -4.5197  -4.4829  -4.4824  -4.4563  -4.4561  -4.4143  -4.4139
    -4.3470  -4.3467  -4.3457  -4.3443  -4.2751  -4.2747  -4.2193  -4.2190
    -4.2175  -4.2166  -4.2158  -4.2154  -4.2117  -4.2114  -4.2113  -4.2095
    -4.1548  -4.1538  -4.0281  -4.0267  -4.0153  -4.0149  -4.0148  -4.0143
    -3.9971  -3.9932  -3.9785  -3.9778  -3.9525  -3.9524  -3.9514  -3.9511
    -3.9454  -3.9438  -3.8788  -3.8333  -3.8331  -3.8035  -3.8029  -3.8020
    -3.8014  -3.7792  -3.7787  -3.7123  -3.7108  -3.6373  -3.6337  -3.6325
    -3.6275  -3.6261  -3.6257  -3.6184  -3.6111  -3.5826  -3.5821  -3.5334
    -3.5270  -3.5123  -3.4391  -3.4385  -3.4380  -3.4372  -3.4087  -3.4085
    -3.4081  -3.4072  -3.3656  -3.3633  -3.3632  -3.3625  -3.3623  -3.3616
    -3.3597  -3.3451  -3.3442  -3.2984  -3.2977  -3.2711  -3.2704  -3.2549
    -3.2547  -3.2545  -3.2540  -3.2258  -3.2245  -3.2168  -3.2158  -3.1843
    -3.1835  -3.1738  -3.1729  -3.1305  -3.1301  -3.1298  -3.1275  -3.0950
    -3.0764  -2.9880  -2.9879  -2.9877  -2.9869  -2.5200  -2.5128  -1.3728
    -1.3728  -1.3712  -1.3697  -1.2352  -1.2305  -1.2250  -1.2143  -0.7233
    -0.7196  -0.6911  -0.6422

          k =-0.0489-0.0282 0.0000 ( 79262 PWs)   bands (ev):

  -113.9479-113.9451-113.9445-113.9430-113.9409-113.9401-113.9399-113.9390
  -113.9387-113.9385-113.9378-113.9374-113.9369-113.9364-113.9361-113.9354
  -113.9349-113.9348-113.9345-113.9342-113.9341-113.9338-113.9334-113.9328
  -113.9327-113.9325-113.9323-113.9320-113.9317-113.9312-113.9309-113.9290
   -71.4091 -71.4079 -71.4070 -71.4064 -71.4030 -71.4015 -71.4006 -71.4005
   -71.3998 -71.3996 -71.3992 -71.3992 -71.3948 -71.3939 -71.3924 -71.3919
   -71.3885 -71.3881 -71.3877 -71.3875 -71.3833 -71.3830 -71.3827 -71.3825
   -71.3779 -71.3776 -71.3676 -71.3673 -71.3618 -71.3613 -71.3608 -71.3599
   -71.3592 -71.3587 -71.3570 -71.3567 -71.3516 -71.3515 -71.3511 -71.3509
   -71.3503 -71.3491 -71.3485 -71.3481 -71.3475 -71.3469 -71.3436 -71.3422
   -71.3414 -71.3413 -71.3410 -71.3408 -71.3393 -71.3389 -71.3384 -71.3372
   -71.3355 -71.3347 -71.3343 -71.3330 -71.3312 -71.3310 -71.3250 -71.3240
   -71.3031 -71.3011 -71.2961 -71.2951 -71.2869 -71.2858 -71.2853 -71.2845
   -71.2827 -71.2811 -71.2783 -71.2762 -71.2758 -71.2746 -71.2701 -71.2690
   -71.2633 -71.2618 -71.2594 -71.2587 -71.2585 -71.2569 -71.2563 -71.2552
   -71.2549 -71.2541 -71.2538 -71.2526 -71.2519 -71.2517 -71.2506 -71.2490
   -24.7569 -24.5188 -22.4500 -22.1961 -17.5532 -15.2690 -13.4989 -12.2813
   -10.6045  -9.3410  -9.1874  -9.1780  -9.1527  -8.9423  -8.6004  -8.2668
    -8.2580  -8.2406  -7.7625  -7.3476  -7.0323  -6.8110  -6.8043  -6.8041
    -6.8037  -6.7306  -6.5708  -6.5599  -6.4792  -6.4783  -6.3738  -5.9379
    -5.9373  -5.9371  -5.9368  -5.9252  -5.8663  -5.8643  -5.6888  -5.6878
    -5.6255  -5.6253  -5.6250  -5.6247  -5.4628  -5.4625  -5.3662  -5.3658
    -5.3655  -5.3652  -5.3634  -5.3631  -5.3620  -5.3618  -5.3359  -5.3350
    -5.3051  -5.3047  -5.1707  -5.1704  -5.1196  -5.1190  -5.1181  -5.1178
    -4.8915  -4.7762  -4.7755  -4.7262  -4.7188  -4.7126  -4.5828  -4.5826
    -4.5817  -4.5812  -4.5810  -4.5803  -4.5801  -4.5798  -4.5786  -4.5761
    -4.5676  -4.5673  -4.5566  -4.5559  -4.5324  -4.5316  -4.5309  -4.5270
    -4.5207  -4.5193  -4.4829  -4.4821  -4.4566  -4.4560  -4.4145  -4.4137
    -4.3472  -4.3461  -4.3458  -4.3441  -4.2754  -4.2746  -4.2190  -4.2186
    -4.2185  -4.2168  -4.2159  -4.2155  -4.2121  -4.2111  -4.2108  -4.2101
    -4.1549  -4.1537  -4.0282  -4.0266  -4.0154  -4.0149  -4.0147  -4.0142
    -3.9955  -3.9937  -3.9788  -3.9778  -3.9527  -3.9522  -3.9513  -3.9512
    -3.9453  -3.9437  -3.8792  -3.8336  -3.8329  -3.8033  -3.8027  -3.8024
    -3.8020  -3.7821  -3.7770  -3.7111  -3.7108  -3.6338  -3.6334  -3.6324
    -3.6278  -3.6262  -3.6254  -3.6192  -3.6108  -3.5825  -3.5823  -3.5366
    -3.5270  -3.5115  -3.4386  -3.4384  -3.4381  -3.4375  -3.4093  -3.4085
    -3.4076  -3.4072  -3.3664  -3.3635  -3.3631  -3.3624  -3.3620  -3.3615
    -3.3591  -3.3449  -3.3443  -3.2982  -3.2976  -3.2711  -3.2704  -3.2552
    -3.2549  -3.2544  -3.2535  -3.2258  -3.2244  -3.2168  -3.2157  -3.1844
    -3.1834  -3.1738  -3.1728  -3.1310  -3.1298  -3.1289  -3.1283  -3.0921
    -3.0813  -2.9882  -2.9877  -2.9876  -2.9871  -2.5227  -2.5084  -1.3731
    -1.3722  -1.3709  -1.3704  -1.2357  -1.2296  -1.2262  -1.2142  -0.7228
    -0.7169  -0.6807  -0.6577

          k =-0.0245 0.0424 0.0000 ( 79268 PWs)   bands (ev):

  -113.9477-113.9458-113.9439-113.9425-113.9413-113.9407-113.9400-113.9392
  -113.9385-113.9381-113.9377-113.9373-113.9367-113.9364-113.9361-113.9355
  -113.9353-113.9349-113.9345-113.9342-113.9338-113.9336-113.9334-113.9331
  -113.9327-113.9325-113.9322-113.9319-113.9316-113.9314-113.9309-113.9290
   -71.4103 -71.4069 -71.4064 -71.4053 -71.4048 -71.4026 -71.4005 -71.3992
   -71.3989 -71.3987 -71.3979 -71.3975 -71.3954 -71.3949 -71.3941 -71.3935
   -71.3927 -71.3888 -71.3882 -71.3878 -71.3837 -71.3829 -71.3817 -71.3749
   -71.3745 -71.3734 -71.3705 -71.3702 -71.3685 -71.3680 -71.3610 -71.3576
   -71.3571 -71.3568 -71.3556 -71.3538 -71.3532 -71.3514 -71.3508 -71.3504
   -71.3499 -71.3494 -71.3488 -71.3461 -71.3453 -71.3450 -71.3446 -71.3444
   -71.3438 -71.3429 -71.3411 -71.3408 -71.3394 -71.3385 -71.3380 -71.3366
   -71.3361 -71.3355 -71.3350 -71.3338 -71.3309 -71.3271 -71.3269 -71.3241
   -71.3032 -71.3003 -71.2983 -71.2915 -71.2900 -71.2866 -71.2852 -71.2833
   -71.2812 -71.2800 -71.2794 -71.2786 -71.2746 -71.2733 -71.2719 -71.2682
   -71.2634 -71.2611 -71.2600 -71.2595 -71.2578 -71.2568 -71.2563 -71.2553
   -71.2546 -71.2541 -71.2537 -71.2530 -71.2519 -71.2515 -71.2506 -71.2490
   -24.7569 -24.5188 -22.4500 -22.1961 -17.5532 -15.2690 -13.4989 -12.2813
   -10.6045  -9.3434  -9.2964  -9.1611  -8.9470  -8.8224  -8.8201  -8.5990
    -8.2504  -7.7627  -7.5421  -7.5415  -7.3479  -7.0320  -6.8490  -6.7439
    -6.6772  -6.6758  -6.6558  -6.3759  -6.2849  -6.2806  -6.2452  -6.2446
    -6.2249  -6.2247  -5.9254  -5.7730  -5.7545  -5.6983  -5.6981  -5.6532
    -5.6527  -5.5781  -5.5780  -5.4931  -5.4929  -5.4851  -5.4842  -5.4584
    -5.4568  -5.4031  -5.3962  -5.3801  -5.3795  -5.2828  -5.2827  -5.2666
    -5.2658  -5.2409  -5.2401  -5.1763  -5.1522  -5.1267  -5.0496  -4.9440
    -4.9398  -4.8929  -4.8469  -4.7984  -4.7954  -4.7226  -4.6451  -4.6448
    -4.6214  -4.5998  -4.5991  -4.5977  -4.5971  -4.5934  -4.5834  -4.5819
    -4.5522  -4.5504  -4.5489  -4.5390  -4.5386  -4.5300  -4.5292  -4.5177
    -4.4741  -4.4731  -4.4555  -4.4394  -4.4281  -4.3927  -4.3571  -4.3566
    -4.3492  -4.3438  -4.3183  -4.3170  -4.2498  -4.2463  -4.2456  -4.2224
    -4.1909  -4.1904  -4.1886  -4.1871  -4.1868  -4.1308  -4.1302  -4.0920
    -4.0917  -4.0880  -4.0869  -4.0852  -4.0848  -4.0604  -4.0600  -4.0514
    -4.0257  -4.0250  -4.0218  -4.0212  -3.9920  -3.9916  -3.9691  -3.9681
    -3.9478  -3.9254  -3.9247  -3.8930  -3.8916  -3.8765  -3.8610  -3.7829
    -3.7798  -3.7445  -3.6855  -3.6825  -3.6717  -3.6704  -3.6671  -3.6166
    -3.6059  -3.5920  -3.5915  -3.5842  -3.5796  -3.5747  -3.5698  -3.5376
    -3.5303  -3.5224  -3.5024  -3.5015  -3.4819  -3.4766  -3.4119  -3.4088
    -3.4071  -3.3952  -3.3944  -3.3652  -3.3633  -3.3629  -3.3626  -3.3622
    -3.3608  -3.3454  -3.3439  -3.3086  -3.3075  -3.3050  -3.3039  -3.2814
    -3.2760  -3.2645  -3.2611  -3.2599  -3.2217  -3.2206  -3.2122  -3.2048
    -3.2037  -3.1894  -3.1573  -3.1572  -3.1390  -3.1203  -3.1198  -3.0711
    -3.0701  -2.9589  -2.8657  -2.8553  -2.4272  -2.4266  -2.3763  -2.3757
    -2.0040  -1.9952  -1.2667  -1.0779  -1.0698  -0.8675  -0.3866  -0.1953
    -0.1891  -0.1488  -0.1273

          k = 0.0489-0.0000 0.0000 ( 79268 PWs)   bands (ev):

  -113.9478-113.9455-113.9442-113.9426-113.9413-113.9406-113.9398-113.9391
  -113.9387-113.9381-113.9378-113.9373-113.9370-113.9363-113.9360-113.9355
  -113.9352-113.9349-113.9345-113.9342-113.9338-113.9336-113.9334-113.9329
  -113.9327-113.9325-113.9322-113.9321-113.9317-113.9313-113.9309-113.9290
   -71.4105 -71.4070 -71.4066 -71.4049 -71.4047 -71.4026 -71.4001 -71.3996
   -71.3988 -71.3987 -71.3976 -71.3973 -71.3957 -71.3951 -71.3940 -71.3932
   -71.3930 -71.3889 -71.3881 -71.3878 -71.3838 -71.3829 -71.3817 -71.3749
   -71.3744 -71.3735 -71.3704 -71.3703 -71.3684 -71.3683 -71.3610 -71.3575
   -71.3573 -71.3563 -71.3559 -71.3535 -71.3533 -71.3519 -71.3507 -71.3504
   -71.3498 -71.3495 -71.3487 -71.3458 -71.3452 -71.3450 -71.3446 -71.3443
   -71.3441 -71.3427 -71.3412 -71.3411 -71.3395 -71.3383 -71.3381 -71.3366
   -71.3360 -71.3355 -71.3352 -71.3338 -71.3309 -71.3270 -71.3269 -71.3240
   -71.3033 -71.2997 -71.2989 -71.2914 -71.2904 -71.2861 -71.2845 -71.2839
   -71.2811 -71.2805 -71.2792 -71.2787 -71.2748 -71.2729 -71.2720 -71.2681
   -71.2637 -71.2609 -71.2603 -71.2594 -71.2578 -71.2568 -71.2558 -71.2555
   -71.2549 -71.2542 -71.2539 -71.2525 -71.2521 -71.2515 -71.2506 -71.2490
   -24.7569 -24.5188 -22.4500 -22.1961 -17.5532 -15.2690 -13.4989 -12.2813
   -10.6045  -9.3432  -9.2968  -9.1610  -8.9469  -8.8228  -8.8198  -8.5990
    -8.2504  -7.7629  -7.5420  -7.5415  -7.3478  -7.0322  -6.8488  -6.7434
    -6.6771  -6.6763  -6.6566  -6.3751  -6.2848  -6.2810  -6.2451  -6.2448
    -6.2249  -6.2247  -5.9255  -5.7729  -5.7544  -5.6984  -5.6981  -5.6531
    -5.6529  -5.5781  -5.5779  -5.4931  -5.4930  -5.4847  -5.4845  -5.4578
    -5.4574  -5.4031  -5.3962  -5.3799  -5.3797  -5.2828  -5.2827  -5.2665
    -5.2660  -5.2405  -5.2404  -5.1763  -5.1522  -5.1268  -5.0496  -4.9435
    -4.9400  -4.8928  -4.8480  -4.7987  -4.7946  -4.7226  -4.6451  -4.6447
    -4.6216  -4.5999  -4.5990  -4.5978  -4.5970  -4.5932  -4.5837  -4.5815
    -4.5522  -4.5499  -4.5491  -4.5392  -4.5385  -4.5298  -4.5295  -4.5177
    -4.4738  -4.4733  -4.4555  -4.4394  -4.4281  -4.3927  -4.3569  -4.3568
    -4.3493  -4.3439  -4.3185  -4.3167  -4.2498  -4.2461  -4.2456  -4.2225
    -4.1910  -4.1905  -4.1879  -4.1876  -4.1868  -4.1309  -4.1301  -4.0919
    -4.0918  -4.0875  -4.0873  -4.0852  -4.0849  -4.0603  -4.0601  -4.0514
    -4.0257  -4.0248  -4.0220  -4.0214  -3.9921  -3.9917  -3.9686  -3.9684
    -3.9475  -3.9253  -3.9247  -3.8924  -3.8921  -3.8774  -3.8606  -3.7824
    -3.7803  -3.7445  -3.6854  -3.6819  -3.6719  -3.6704  -3.6675  -3.6166
    -3.6057  -3.5921  -3.5915  -3.5835  -3.5798  -3.5748  -3.5704  -3.5390
    -3.5301  -3.5214  -3.5020  -3.5019  -3.4821  -3.4764  -3.4120  -3.4080
    -3.4077  -3.3949  -3.3947  -3.3643  -3.3632  -3.3627  -3.3626  -3.3624
    -3.3616  -3.3449  -3.3446  -3.3083  -3.3078  -3.3047  -3.3041  -3.2814
    -3.2761  -3.2646  -3.2611  -3.2599  -3.2213  -3.2211  -3.2122  -3.2044
    -3.2041  -3.1893  -3.1573  -3.1571  -3.1392  -3.1202  -3.1200  -3.0707
    -3.0704  -2.9588  -2.8660  -2.8549  -2.4273  -2.4264  -2.3762  -2.3758
    -2.0032  -1.9958  -1.2667  -1.0756  -1.0724  -0.8674  -0.3868  -0.1920
    -0.1896  -0.1454  -0.1339

     the Fermi energy is    -1.6921 ev

!    total energy              =  -13113.61901520 Ry
     Harris-Foulkes estimate   =  -13113.61901506 Ry
     estimated scf accuracy    <       0.00000012 Ry

     The total energy is the sum of the following terms:

     one-electron contribution = -112928.81140454 Ry
     hartree contribution      =   56453.64294806 Ry
     xc contribution           =   -1291.75605563 Ry
     ewald contribution        =   44653.32364712 Ry
     smearing contrib. (-TS)   =      -0.01815021 Ry

     convergence has been achieved in   8 iterations

     Forces acting on atoms (Ry/au):


     negative rho (up, down):  4.634E-03 0.000E+00
     atom    1 type  1   force =    -0.00002675   -0.00004929   -0.00082333
     atom    2 type  1   force =     0.00006308    0.00003402    0.00085358
     atom    3 type  1   force =     0.00002057   -0.00002628   -0.00075752
     atom    4 type  1   force =    -0.00002312    0.00010518    0.00078159
     atom    5 type  1   force =    -0.00004773    0.00001390   -0.00084739
     atom    6 type  1   force =     0.00023490    0.00003912    0.00104527
     atom    7 type  1   force =    -0.00008102   -0.00001792   -0.00080158
     atom    8 type  1   force =     0.00004398    0.00000109    0.00087126
     atom    9 type  1   force =    -0.00003206    0.00001876   -0.00080789
     atom   10 type  1   force =     0.00003881    0.00009172    0.00088623
     atom   11 type  1   force =     0.00000971    0.00009167   -0.00081236
     atom   12 type  1   force =    -0.00000307   -0.00057502    0.00048100
     atom   13 type  1   force =     0.00010009   -0.00008217   -0.00096993
     atom   14 type  1   force =    -0.00080722    0.00017728   -0.00057555
     atom   15 type  1   force =    -0.00001829    0.00000428   -0.00092245
     atom   16 type  1   force =     0.00010901   -0.00017119    0.00100056
     atom   17 type  1   force =    -0.00000634   -0.00000930   -0.00090102
     atom   18 type  1   force =    -0.00007692    0.00000594    0.00092084
     atom   19 type  1   force =    -0.00002194    0.00011919   -0.00086528
     atom   20 type  1   force =     0.00008876   -0.00015783    0.00056225
     atom   21 type  1   force =     0.00004495    0.00002223   -0.00063371
     atom   22 type  1   force =     0.00034873    0.00009815    0.00131270
     atom   23 type  1   force =     0.00015488   -0.00004631   -0.00090753
     atom   24 type  1   force =    -0.00022370    0.00027157    0.00056376
     atom   25 type  1   force =     0.00006910   -0.00004044   -0.00082886
     atom   26 type  1   force =    -0.00002007   -0.00001165    0.00080662
     atom   27 type  1   force =    -0.00000100    0.00003611   -0.00090826
     atom   28 type  1   force =    -0.00007127    0.00001767    0.00091109
     atom   29 type  1   force =    -0.00009199    0.00001652   -0.00068096
     atom   30 type  1   force =     0.00002335   -0.00004395    0.00075526
     atom   31 type  1   force =    -0.00004784   -0.00005057   -0.00056691
     atom   32 type  1   force =     0.00010022    0.00005467    0.00071481
     atom   33 type  2   force =     0.00059001    0.00098582   -0.00033304
     atom   34 type  2   force =    -0.00030736   -0.00003510    0.00000437
     atom   35 type  2   force =     0.00003783    0.00069970   -0.00051054
     atom   36 type  2   force =     0.00091802   -0.00042884    0.00016406
     atom   37 type  3   force =    -0.00024999    0.00010059    0.00032501
     atom   38 type  3   force =     0.00061019   -0.00118354    0.00079505
     atom   39 type  3   force =     0.00028837   -0.00155095    0.00064850
     atom   40 type  3   force =    -0.00014876   -0.00007180    0.00025782
     atom   41 type  3   force =    -0.00052949    0.00135119   -0.00026380
     atom   42 type  4   force =     0.00009691   -0.00030745    0.00024777
     atom   43 type  4   force =    -0.00079837    0.00092411    0.00072552
     atom   44 type  4   force =     0.00003637   -0.00013509   -0.00033403
     atom   45 type  4   force =     0.00044582    0.00003881   -0.00008973
     atom   46 type  4   force =    -0.00086079   -0.00036870   -0.00091366
     atom   47 type  4   force =     0.00002142    0.00004413    0.00042043

     Total force =     0.006259     Total SCF correction =     0.000953
     SCF correction compared to forces is large: reduce conv_thr to get better values
 !ASE

     Writing output data file calc.save
 
     init_run     :     86.80s CPU     87.58s WALL (       1 calls)
     electrons    : 181099.86s CPU 184254.87s WALL (      51 calls)
     update_pot   :    252.05s CPU    260.97s WALL (      50 calls)
     forces       :   3829.66s CPU   3835.15s WALL (      51 calls)

     Called by init_run:
     wfcinit      :     64.65s CPU     65.29s WALL (       1 calls)
     potinit      :      2.00s CPU      2.07s WALL (       1 calls)

     Called by electrons:
     c_bands      : 118649.38s CPU 121326.84s WALL (     815 calls)
     sum_band     :  32568.99s CPU  32625.31s WALL (     815 calls)
     v_of_rho     :    341.36s CPU    372.12s WALL (     866 calls)
     newd         :  18952.92s CPU  18979.65s WALL (     866 calls)
     mix_rho      :  11688.25s CPU  12042.48s WALL (     815 calls)

     Called by c_bands:
     init_us_2    :    797.34s CPU    800.96s WALL (   16820 calls)
     cegterg      : 115607.05s CPU 118188.97s WALL (    8150 calls)

     Called by *egterg:
     h_psi        :  76569.24s CPU  76664.00s WALL (   30979 calls)
     s_psi        :   6581.01s CPU   6580.41s WALL (   30979 calls)
     g_psi        :    155.25s CPU    155.34s WALL (   22819 calls)
     cdiaghg      :  10738.92s CPU  10737.48s WALL (   30469 calls)

     Called by h_psi:
     add_vuspsi   :   6600.19s CPU   6600.05s WALL (   30979 calls)

     General routines
     calbec       :   9266.68s CPU   9279.85s WALL (   39639 calls)
     fft          :    475.85s CPU    514.67s WALL (   14263 calls)
     ffts         :   5048.09s CPU   5395.32s WALL ( 1046909 calls)
     fftw         :  55907.56s CPU  55941.46s WALL (15388992 calls)
     interpolate  :     65.94s CPU     69.89s WALL (    1681 calls)
     davcio       :      0.01s CPU      5.31s WALL (      10 calls)
 
     Parallel routines
     fft_scatter  :  20961.02s CPU  21238.03s WALL (16450164 calls)
 
     PWSCF        :     2d    3h46m CPU        2d    4h39m WALL

 
   This run was terminated on:  22:45:52   8Apr2019            

=------------------------------------------------------------------------------=
   JOB DONE.
=------------------------------------------------------------------------------=
