  python dir          : /gpfs/pace1/project/chbe-medford/medford-share/gits/frozen/ben_espresso_8_24_2017/espresso
  espresso dir        : /nv/hp22/amedford6/medford-shared/builds/espresso/5.1.r11289-pybeef/intel-16.0+mvapich2-2.2+mkl-11.3/espresso-5.1.r11289-pybeef/bin
  pseudo dir          : /gpfs/pace1/project/chbe-medford/medford-share/data/pseudos/SSSP_eff_PBE
  ase-espresso py git : GITVERSION



     Program PWSCF v.5.1rc2 starts on  9Feb2019 at 22: 8:49 

     This program is part of the open-source Quantum ESPRESSO suite
     for quantum simulation of materials; please cite
         "P. Giannozzi et al., J. Phys.:Condens. Matter 21 395502 (2009);
          URL http://www.quantum-espresso.org", 
     in publications or presentations arising from this work. More details at
     http://www.quantum-espresso.org/quote

     Parallel version (MPI), running on    12 processors
     R & G space division:  proc/nbgrp/npool/nimage =      12
     Reading input from pw.inp
     Message from routine read_cards :
     DEPRECATED: no units specified in CELL_PARAMETERS card

     Current dimensions of program PWSCF are:
     Max number of different atomic species (ntypx) = 10
     Max number of k-points (npk) =  40000
     Max angular momentum in pseudopotentials (lmaxx) =  3

     IMPORTANT: XC functional enforced from input :
     Exchange-correlation      = PBE ( 1  4  3  4 0)
     Any further DFT definition will be discarded
     Please, verify this is what you really want


     Subspace diagonalization in iterative solution of the eigenvalue problem:
     a serial algorithm will be used

 
     Parallelization info
     --------------------
     sticks:   dense  smooth     PW     G-vecs:    dense   smooth      PW
     Min         706     346     91               153274    52380    7131
     Max         707     347     92               153289    52411    7140
     Sum        8479    4153   1099              1839367   628667   85635
 


     bravais-lattice index     =            0
     lattice parameter (alat)  =       1.8897  a.u.
     unit-cell volume          =   18112.9477 (a.u.)^3
     number of atoms/cell      =           48
     number of atomic types    =            4
     number of electrons       =       654.00
     number of Kohn-Sham states=          337
     kinetic-energy cutoff     =      40.4243  Ry
     charge density cutoff     =     330.7439  Ry
     convergence threshold     =      7.3E-07
     mixing beta               =       0.2000
     number of iterations used =            8  local-TF  mixing
     Exchange-correlation      = PBE ( 1  4  3  4 0)
     nstep                     =           50


     celldm(1)=   1.889726  celldm(2)=   0.000000  celldm(3)=   0.000000
     celldm(4)=   0.000000  celldm(5)=   0.000000  celldm(6)=   0.000000

     crystal axes: (cart. coord. in units of alat)
               a(1) = (  10.224481   0.000000   0.000000 )  
               a(2) = (  -5.112241   8.854660   0.000000 )  
               a(3) = (   0.000000   0.000000  29.646903 )  

     reciprocal axes: (cart. coord. in units 2 pi/alat)
               b(1) = (  0.097804  0.056467  0.000000 )  
               b(2) = (  0.000000  0.112935  0.000000 )  
               b(3) = (  0.000000  0.000000  0.033730 )  


     PseudoPot. # 1 for Cu read from file:
     /gpfs/pace1/project/chbe-medford/medford-share/data/pseudos/SSSP_eff_PBE/Cu.UPF
     MD5 check sum: 6e991ff952a84172a2a52a1c1e996048
     Pseudo is Ultrasoft + core correction, Zval = 19.0
     Generated by new atomic code, or converted to UPF format
     Using radial grid of  867 points,  6 beta functions with: 
                l(1) =   0
                l(2) =   0
                l(3) =   1
                l(4) =   1
                l(5) =   2
                l(6) =   2
     Q(r) pseudized with  8 coefficients,  rinner =    1.150   1.150   1.150
                                                       1.150   1.150

     PseudoPot. # 2 for O  read from file:
     /gpfs/pace1/project/chbe-medford/medford-share/data/pseudos/SSSP_eff_PBE/O.UPF
     MD5 check sum: 734c27235a0248c51dbae37a1fbe46ec
     Pseudo is Ultrasoft + core correction, Zval =  6.0
     Generated by new atomic code, or converted to UPF format
     Using radial grid of  737 points,  5 beta functions with: 
                l(1) =   0
                l(2) =   0
                l(3) =   1
                l(4) =   1
                l(5) =   2
     Q(r) pseudized with  8 coefficients,  rinner =    0.900   0.900   0.900
                                                       0.900   0.900

     PseudoPot. # 3 for C  read from file:
     /gpfs/pace1/project/chbe-medford/medford-share/data/pseudos/SSSP_eff_PBE/C.UPF
     MD5 check sum: d1aef80898a10debaa0f26306b886e00
     Pseudo is Ultrasoft + core correction, Zval =  4.0
     Generated by new atomic code, or converted to UPF format
     Using radial grid of  721 points,  4 beta functions with: 
                l(1) =   0
                l(2) =   0
                l(3) =   1
                l(4) =   1
     Q(r) pseudized with  8 coefficients,  rinner =    1.100   1.100   1.100


     PseudoPot. # 4 for  H read from file:
     /gpfs/pace1/project/chbe-medford/medford-share/data/pseudos/SSSP_eff_PBE/H.UPF
     MD5 check sum: 36633979392af7100e6f6632747262d3
     Pseudo is Ultrasoft, Zval =  1.0
     Generated using "atomic" code by A. Dal Corso  v.5.0.99 svn rev. 10869
     Using radial grid of  929 points,  2 beta functions with: 
                l(1) =   0
                l(2) =   0
     Q(r) pseudized with 0 coefficients 


     atomic species   valence    mass     pseudopotential
        Cu1           19.00    63.54600     Cu( 1.00)
        O1             6.00    15.99940     O ( 1.00)
        C1             4.00    12.01100     C ( 1.00)
        H1             1.00     1.00794      H( 1.00)

     No symmetry found



   Cartesian axes

     site n.     atom                  positions (alat units)
         1           Cu1 tau(   1) = (   0.0000000   0.0000000  10.0000000  )
         2           Cu1 tau(   2) = (   1.2780602   0.7378884  12.0870635  )
         3           Cu1 tau(   3) = (  -1.2780602   2.2136651  10.0000000  )
         4           Cu1 tau(   4) = (   0.0000000   2.9515535  12.0870635  )
         5           Cu1 tau(   5) = (  -2.5561203   4.4273302  10.0000000  )
         6           Cu1 tau(   6) = (  -1.2780602   5.1652186  12.0870635  )
         7           Cu1 tau(   7) = (  -3.8341805   6.6409954  10.0000000  )
         8           Cu1 tau(   8) = (  -2.5561203   7.3788837  12.0870635  )
         9           Cu1 tau(   9) = (   2.5561203   0.0000000  10.0000000  )
        10           Cu1 tau(  10) = (   3.8341805   0.7378884  12.0870635  )
        11           Cu1 tau(  11) = (   1.2780602   2.2136651  10.0000000  )
        12           Cu1 tau(  12) = (   2.5561203   2.9515535  12.0870635  )
        13           Cu1 tau(  13) = (   0.0000000   4.4273302  10.0000000  )
        14           Cu1 tau(  14) = (   1.2780602   5.1652186  12.0870635  )
        15           Cu1 tau(  15) = (  -1.2780602   6.6409954  10.0000000  )
        16           Cu1 tau(  16) = (   0.0000000   7.3788837  12.0870635  )
        17           Cu1 tau(  17) = (   5.1122406   0.0000000  10.0000000  )
        18           Cu1 tau(  18) = (   6.3903008   0.7378884  12.0870635  )
        19           Cu1 tau(  19) = (   3.8341805   2.2136651  10.0000000  )
        20           Cu1 tau(  20) = (   5.1122406   2.9515535  12.0870635  )
        21           Cu1 tau(  21) = (   2.5561203   4.4273302  10.0000000  )
        22           Cu1 tau(  22) = (   3.8341805   5.1652186  12.0870635  )
        23           Cu1 tau(  23) = (   1.2780602   6.6409954  10.0000000  )
        24           Cu1 tau(  24) = (   2.5561203   7.3788837  12.0870635  )
        25           Cu1 tau(  25) = (   7.6683609   0.0000000  10.0000000  )
        26           Cu1 tau(  26) = (   8.9464211   0.7378884  12.0870635  )
        27           Cu1 tau(  27) = (   6.3903008   2.2136651  10.0000000  )
        28           Cu1 tau(  28) = (   7.6683609   2.9515535  12.0870635  )
        29           Cu1 tau(  29) = (   5.1122406   4.4273302  10.0000000  )
        30           Cu1 tau(  30) = (   6.3903008   5.1652186  12.0870635  )
        31           Cu1 tau(  31) = (   3.8341805   6.6409954  10.0000000  )
        32           Cu1 tau(  32) = (   5.1122406   7.3788837  12.0870635  )
        33           O1  tau(  33) = (   5.1632000   7.5278056  16.7387357  )
        34           O1  tau(  34) = (   5.1120000   2.9520000  14.5870635  )
        35           O1  tau(  35) = (   5.1629000   2.5068933  16.8136109  )
        36           C1  tau(  36) = (   5.1492000   5.2393101  17.5175261  )
        37           C1  tau(  37) = (   5.1443000   4.8182607  16.0516052  )
        38           C1  tau(  38) = (   5.1446000   6.7476773  17.6895575  )
        39           C1  tau(  39) = (   5.1111000   7.2533549  19.1084983  )
        40           C1  tau(  40) = (   5.1416000   3.3154018  15.8960331  )
        41           H1  tau(  41) = (   6.0395000   4.8436822  18.0195738  )
        42           H1  tau(  42) = (   4.2647000   4.8372707  18.0248788  )
        43           H1  tau(  43) = (   6.0331000   5.2130101  15.5462791  )
        44           H1  tau(  44) = (   4.2531000   5.2159197  15.5530396  )
        45           H1  tau(  45) = (   4.1984000   6.9066467  19.5994145  )
        46           H1  tau(  46) = (   5.9905000   6.8916997  19.6469034  )
        47           H1  tau(  47) = (   5.1206000   8.3468201  19.1109609  )
        48           H1  tau(  48) = (   5.1101000   1.9771262  14.4785945  )

     number of k points=     4  Fermi-Dirac smearing, width (Ry)=  0.0073
                       cart. coord. in units 2pi/alat
        k(    1) = (   0.0000000   0.0000000   0.0000000), wk =   0.5000000
        k(    2) = (   0.0000000  -0.0564674   0.0000000), wk =   0.5000000
        k(    3) = (   0.0489022  -0.0282337   0.0000000), wk =   0.5000000
        k(    4) = (  -0.0489022  -0.0282337   0.0000000), wk =   0.5000000

     Dense  grid:  1839367 G-vectors     FFT dimensions: ( 120, 120, 360)

     Smooth grid:   628667 G-vectors     FFT dimensions: (  80,  80, 240)

     Largest allocated arrays     est. size (Mb)     dimensions
        Kohn-Sham Wavefunctions        33.97 Mb     (    6606,  337)
        NL pseudopotentials            67.64 Mb     (    6606,  671)
        Each V/rho on FFT grid          6.59 Mb     (  432000)
        Each G-vector array             1.17 Mb     (  153283)
        G-vector shells                 0.37 Mb     (   49024)
     Largest temporary arrays     est. size (Mb)     dimensions
        Auxiliary wavefunctions       135.88 Mb     (    6606, 1348)
        Each subspace H/S matrix       27.73 Mb     (    1348, 1348)
        Each <psi_i|beta_j> matrix      3.45 Mb     (     671,  337)
        Arrays for rho mixing          52.73 Mb     (  432000,    8)

     Initial potential from superposition of free atoms
     Check: negative starting charge=   -0.009956

     starting charge  621.99965, renormalised to  654.00000

     negative rho (up, down):  1.047E-02 0.000E+00
     Starting wfc are  456 randomized atomic wfcs

     total cpu time spent up to now is       67.5 secs

     per-process dynamical memory:   355.6 Mb

     Self-consistent Calculation

     iteration #  1     ecut=    40.42 Ry     beta=0.20
     Davidson diagonalization with overlap
     ethr =  1.00E-02,  avg # of iterations =  4.2

     negative rho (up, down):  2.831E-01 0.000E+00

     total cpu time spent up to now is      264.7 secs

     total energy              =  -13091.56688144 Ry
     Harris-Foulkes estimate   =  -13122.37627588 Ry
     estimated scf accuracy    <     560.50687295 Ry

     iteration #  2     ecut=    40.42 Ry     beta=0.20
     Davidson diagonalization with overlap
     ethr =  1.00E-02,  avg # of iterations =  3.8

     negative rho (up, down):  5.856E-01 0.000E+00

     total cpu time spent up to now is      388.5 secs

     total energy              =  -13064.70685164 Ry
     Harris-Foulkes estimate   =  -13096.76112845 Ry
     estimated scf accuracy    <     323.23432177 Ry

     iteration #  3     ecut=    40.42 Ry     beta=0.20
     Davidson diagonalization with overlap
     ethr =  1.00E-02,  avg # of iterations =  9.5

     negative rho (up, down):  5.226E-01 0.000E+00

     total cpu time spent up to now is      603.9 secs

     total energy              =  -13085.53221110 Ry
     Harris-Foulkes estimate   =  -13088.96424521 Ry
     estimated scf accuracy    <      43.97071278 Ry

     iteration #  4     ecut=    40.42 Ry     beta=0.20
     Davidson diagonalization with overlap
     ethr =  6.72E-03,  avg # of iterations =  1.0

     negative rho (up, down):  4.357E-01 0.000E+00

     total cpu time spent up to now is      716.7 secs

     total energy              =  -13083.16804978 Ry
     Harris-Foulkes estimate   =  -13086.18925050 Ry
     estimated scf accuracy    <      30.29575609 Ry

     iteration #  5     ecut=    40.42 Ry     beta=0.20
     Davidson diagonalization with overlap
     ethr =  4.63E-03,  avg # of iterations =  3.0

     negative rho (up, down):  4.607E-01 0.000E+00

     total cpu time spent up to now is      837.5 secs

     total energy              =  -13083.49617692 Ry
     Harris-Foulkes estimate   =  -13085.09842018 Ry
     estimated scf accuracy    <      15.73422362 Ry

     iteration #  6     ecut=    40.42 Ry     beta=0.20
     Davidson diagonalization with overlap
     ethr =  2.41E-03,  avg # of iterations =  2.0

     negative rho (up, down):  4.406E-01 0.000E+00

     total cpu time spent up to now is      953.7 secs

     total energy              =  -13084.34527367 Ry
     Harris-Foulkes estimate   =  -13084.55964087 Ry
     estimated scf accuracy    <       2.89566635 Ry

     iteration #  7     ecut=    40.42 Ry     beta=0.20
     Davidson diagonalization with overlap
     ethr =  4.43E-04,  avg # of iterations =  4.2

     negative rho (up, down):  3.837E-01 0.000E+00

     total cpu time spent up to now is     1078.0 secs

     total energy              =  -13084.08712703 Ry
     Harris-Foulkes estimate   =  -13084.53190648 Ry
     estimated scf accuracy    <       1.96896389 Ry

     iteration #  8     ecut=    40.42 Ry     beta=0.20
     Davidson diagonalization with overlap
     ethr =  3.01E-04,  avg # of iterations =  2.0

     negative rho (up, down):  3.574E-01 0.000E+00

     total cpu time spent up to now is     1198.0 secs

     total energy              =  -13084.12254139 Ry
     Harris-Foulkes estimate   =  -13084.23223045 Ry
     estimated scf accuracy    <       3.34529232 Ry

     iteration #  9     ecut=    40.42 Ry     beta=0.20
     Davidson diagonalization with overlap
     ethr =  3.01E-04,  avg # of iterations =  2.2

     negative rho (up, down):  3.344E-01 0.000E+00

     total cpu time spent up to now is     1317.0 secs

     total energy              =  -13084.02326243 Ry
     Harris-Foulkes estimate   =  -13084.15116740 Ry
     estimated scf accuracy    <       2.67633054 Ry

     iteration # 10     ecut=    40.42 Ry     beta=0.20
     Davidson diagonalization with overlap
     ethr =  3.01E-04,  avg # of iterations =  1.0

     negative rho (up, down):  2.579E-01 0.000E+00

     total cpu time spent up to now is     1429.9 secs

     total energy              =  -13083.89959488 Ry
     Harris-Foulkes estimate   =  -13084.05893459 Ry
     estimated scf accuracy    <       0.91103177 Ry

     iteration # 11     ecut=    40.42 Ry     beta=0.20
     Davidson diagonalization with overlap
     ethr =  1.39E-04,  avg # of iterations =  2.2

     negative rho (up, down):  2.529E-01 0.000E+00

     total cpu time spent up to now is     1548.6 secs

     total energy              =  -13083.99518875 Ry
     Harris-Foulkes estimate   =  -13084.06041909 Ry
     estimated scf accuracy    <       4.74430646 Ry

     iteration # 12     ecut=    40.42 Ry     beta=0.20
     Davidson diagonalization with overlap
     ethr =  1.39E-04,  avg # of iterations =  1.0

     negative rho (up, down):  2.494E-01 0.000E+00

     total cpu time spent up to now is     1660.8 secs

     total energy              =  -13083.96596816 Ry
     Harris-Foulkes estimate   =  -13084.00776893 Ry
     estimated scf accuracy    <       3.45940286 Ry

     iteration # 13     ecut=    40.42 Ry     beta=0.20
     Davidson diagonalization with overlap
     ethr =  1.39E-04,  avg # of iterations =  1.0

     negative rho (up, down):  2.497E-01 0.000E+00

     total cpu time spent up to now is     1774.0 secs

     total energy              =  -13083.94888066 Ry
     Harris-Foulkes estimate   =  -13083.96746488 Ry
     estimated scf accuracy    <       3.26127327 Ry

     iteration # 14     ecut=    40.42 Ry     beta=0.20
     Davidson diagonalization with overlap
     ethr =  1.39E-04,  avg # of iterations =  1.0

     negative rho (up, down):  1.935E-01 0.000E+00

     total cpu time spent up to now is     1886.8 secs

     total energy              =  -13083.78599273 Ry
     Harris-Foulkes estimate   =  -13083.95186042 Ry
     estimated scf accuracy    <       3.08233465 Ry

     iteration # 15     ecut=    40.42 Ry     beta=0.20
     Davidson diagonalization with overlap
     ethr =  1.39E-04,  avg # of iterations =  4.0

     negative rho (up, down):  1.946E-01 0.000E+00

     total cpu time spent up to now is     2011.8 secs

     total energy              =  -13083.91690486 Ry
     Harris-Foulkes estimate   =  -13084.09625546 Ry
     estimated scf accuracy    <       4.73587196 Ry

     iteration # 16     ecut=    40.42 Ry     beta=0.20
     Davidson diagonalization with overlap
     ethr =  1.39E-04,  avg # of iterations =  3.0

     negative rho (up, down):  1.796E-01 0.000E+00

     total cpu time spent up to now is     2131.4 secs

     total energy              =  -13083.84790341 Ry
     Harris-Foulkes estimate   =  -13083.95291249 Ry
     estimated scf accuracy    <       6.40643256 Ry

     iteration # 17     ecut=    40.42 Ry     beta=0.20
     Davidson diagonalization with overlap
     ethr =  1.39E-04,  avg # of iterations =  3.0

     negative rho (up, down):  2.058E-01 0.000E+00

     total cpu time spent up to now is     2248.9 secs

     total energy              =  -13083.75567510 Ry
     Harris-Foulkes estimate   =  -13083.86537064 Ry
     estimated scf accuracy    <       4.58313411 Ry

     iteration # 18     ecut=    40.42 Ry     beta=0.20
     Davidson diagonalization with overlap
     ethr =  1.39E-04,  avg # of iterations =  2.0

     negative rho (up, down):  1.887E-01 0.000E+00

     total cpu time spent up to now is     2364.4 secs

     total energy              =  -13083.79366226 Ry
     Harris-Foulkes estimate   =  -13083.81000504 Ry
     estimated scf accuracy    <       2.72685856 Ry

     iteration # 19     ecut=    40.42 Ry     beta=0.20
     Davidson diagonalization with overlap
     ethr =  1.39E-04,  avg # of iterations =  1.0

     negative rho (up, down):  1.708E-01 0.000E+00

     total cpu time spent up to now is     2479.9 secs

     total energy              =  -13083.75833641 Ry
     Harris-Foulkes estimate   =  -13083.79613796 Ry
     estimated scf accuracy    <       2.34996866 Ry

     iteration # 20     ecut=    40.42 Ry     beta=0.20
     Davidson diagonalization with overlap
     ethr =  1.39E-04,  avg # of iterations =  1.0

     negative rho (up, down):  1.449E-01 0.000E+00

     total cpu time spent up to now is     2594.2 secs

     total energy              =  -13083.74804307 Ry
     Harris-Foulkes estimate   =  -13083.76745319 Ry
     estimated scf accuracy    <       0.88456381 Ry

     iteration # 21     ecut=    40.42 Ry     beta=0.20
     Davidson diagonalization with overlap
     ethr =  1.35E-04,  avg # of iterations =  1.0

     negative rho (up, down):  1.486E-01 0.000E+00

     total cpu time spent up to now is     2707.1 secs

     total energy              =  -13083.69540489 Ry
     Harris-Foulkes estimate   =  -13083.75285838 Ry
     estimated scf accuracy    <       0.37374643 Ry

     iteration # 22     ecut=    40.42 Ry     beta=0.20
     Davidson diagonalization with overlap
     ethr =  5.71E-05,  avg # of iterations =  3.0

     negative rho (up, down):  9.499E-02 0.000E+00

     total cpu time spent up to now is     2826.9 secs

     total energy              =  -13083.69682670 Ry
     Harris-Foulkes estimate   =  -13083.71826724 Ry
     estimated scf accuracy    <       0.12288325 Ry

     iteration # 23     ecut=    40.42 Ry     beta=0.20
     Davidson diagonalization with overlap
     ethr =  1.88E-05,  avg # of iterations =  3.2

     negative rho (up, down):  1.627E-01 0.000E+00

     total cpu time spent up to now is     2948.5 secs

     total energy              =  -13083.70490467 Ry
     Harris-Foulkes estimate   =  -13083.70616400 Ry
     estimated scf accuracy    <       0.12698706 Ry

     iteration # 24     ecut=    40.42 Ry     beta=0.20
     Davidson diagonalization with overlap
     ethr =  1.88E-05,  avg # of iterations =  2.0

     negative rho (up, down):  1.986E-01 0.000E+00

     total cpu time spent up to now is     3065.3 secs

     total energy              =  -13083.70526282 Ry
     Harris-Foulkes estimate   =  -13083.70662385 Ry
     estimated scf accuracy    <       0.10893695 Ry

     iteration # 25     ecut=    40.42 Ry     beta=0.20
     Davidson diagonalization with overlap
     ethr =  1.67E-05,  avg # of iterations =  3.0

     negative rho (up, down):  1.607E-01 0.000E+00

     total cpu time spent up to now is     3184.3 secs

     total energy              =  -13083.68657497 Ry
     Harris-Foulkes estimate   =  -13083.70707337 Ry
     estimated scf accuracy    <       0.09280433 Ry

     iteration # 26     ecut=    40.42 Ry     beta=0.20
     Davidson diagonalization with overlap
     ethr =  1.42E-05,  avg # of iterations =  4.0

     negative rho (up, down):  9.394E-02 0.000E+00

     total cpu time spent up to now is     3308.6 secs

     total energy              =  -13083.68398490 Ry
     Harris-Foulkes estimate   =  -13083.69093597 Ry
     estimated scf accuracy    <       0.04981064 Ry

     iteration # 27     ecut=    40.42 Ry     beta=0.20
     Davidson diagonalization with overlap
     ethr =  7.62E-06,  avg # of iterations =  2.2

     negative rho (up, down):  7.471E-02 0.000E+00

     total cpu time spent up to now is     3423.2 secs

     total energy              =  -13083.67959369 Ry
     Harris-Foulkes estimate   =  -13083.68496981 Ry
     estimated scf accuracy    <       0.04302947 Ry

     iteration # 28     ecut=    40.42 Ry     beta=0.20
     Davidson diagonalization with overlap
     ethr =  6.58E-06,  avg # of iterations =  2.0

     negative rho (up, down):  8.764E-02 0.000E+00

     total cpu time spent up to now is     3537.1 secs

     total energy              =  -13083.67551153 Ry
     Harris-Foulkes estimate   =  -13083.68010959 Ry
     estimated scf accuracy    <       0.03442466 Ry

     iteration # 29     ecut=    40.42 Ry     beta=0.20
     Davidson diagonalization with overlap
     ethr =  5.26E-06,  avg # of iterations =  3.0

     negative rho (up, down):  8.593E-02 0.000E+00

     total cpu time spent up to now is     3656.1 secs

     total energy              =  -13083.67429192 Ry
     Harris-Foulkes estimate   =  -13083.67647024 Ry
     estimated scf accuracy    <       0.02274729 Ry

     iteration # 30     ecut=    40.42 Ry     beta=0.20
     Davidson diagonalization with overlap
     ethr =  3.48E-06,  avg # of iterations =  2.0

     negative rho (up, down):  6.401E-02 0.000E+00

     total cpu time spent up to now is     3773.1 secs

     total energy              =  -13083.66835295 Ry
     Harris-Foulkes estimate   =  -13083.67455297 Ry
     estimated scf accuracy    <       0.01869344 Ry

     iteration # 31     ecut=    40.42 Ry     beta=0.20
     Davidson diagonalization with overlap
     ethr =  2.86E-06,  avg # of iterations =  3.0

     negative rho (up, down):  4.949E-02 0.000E+00

     total cpu time spent up to now is     3893.0 secs

     total energy              =  -13083.66787457 Ry
     Harris-Foulkes estimate   =  -13083.66916560 Ry
     estimated scf accuracy    <       0.01215235 Ry

     iteration # 32     ecut=    40.42 Ry     beta=0.20
     Davidson diagonalization with overlap
     ethr =  1.86E-06,  avg # of iterations =  2.0

     negative rho (up, down):  4.660E-02 0.000E+00

     total cpu time spent up to now is     4011.0 secs

     total energy              =  -13083.66594231 Ry
     Harris-Foulkes estimate   =  -13083.66800940 Ry
     estimated scf accuracy    <       0.01031861 Ry

     iteration # 33     ecut=    40.42 Ry     beta=0.20
     Davidson diagonalization with overlap
     ethr =  1.58E-06,  avg # of iterations =  3.0

     negative rho (up, down):  3.392E-02 0.000E+00

     total cpu time spent up to now is     4129.6 secs

     total energy              =  -13083.66497172 Ry
     Harris-Foulkes estimate   =  -13083.66616708 Ry
     estimated scf accuracy    <       0.00831349 Ry

     iteration # 34     ecut=    40.42 Ry     beta=0.20
     Davidson diagonalization with overlap
     ethr =  1.27E-06,  avg # of iterations =  2.0

     negative rho (up, down):  1.554E-02 0.000E+00

     total cpu time spent up to now is     4249.7 secs

     total energy              =  -13083.66304594 Ry
     Harris-Foulkes estimate   =  -13083.66506899 Ry
     estimated scf accuracy    <       0.00680239 Ry

     iteration # 35     ecut=    40.42 Ry     beta=0.20
     Davidson diagonalization with overlap
     ethr =  1.04E-06,  avg # of iterations =  3.5

     negative rho (up, down):  4.102E-02 0.000E+00

     total cpu time spent up to now is     4372.6 secs

     total energy              =  -13083.66253311 Ry
     Harris-Foulkes estimate   =  -13083.66339908 Ry
     estimated scf accuracy    <       0.00417915 Ry

     iteration # 36     ecut=    40.42 Ry     beta=0.20
     Davidson diagonalization with overlap
     ethr =  6.39E-07,  avg # of iterations =  2.5

     negative rho (up, down):  3.739E-02 0.000E+00

     total cpu time spent up to now is     4493.6 secs

     total energy              =  -13083.66241225 Ry
     Harris-Foulkes estimate   =  -13083.66266740 Ry
     estimated scf accuracy    <       0.00228910 Ry

     iteration # 37     ecut=    40.42 Ry     beta=0.20
     Davidson diagonalization with overlap
     ethr =  3.50E-07,  avg # of iterations =  2.0

     negative rho (up, down):  2.917E-02 0.000E+00

     total cpu time spent up to now is     4612.0 secs

     total energy              =  -13083.66250276 Ry
     Harris-Foulkes estimate   =  -13083.66247089 Ry
     estimated scf accuracy    <       0.00140499 Ry

     iteration # 38     ecut=    40.42 Ry     beta=0.20
     Davidson diagonalization with overlap
     ethr =  2.15E-07,  avg # of iterations =  3.2

     negative rho (up, down):  1.888E-02 0.000E+00

     total cpu time spent up to now is     4737.1 secs

     total energy              =  -13083.66265885 Ry
     Harris-Foulkes estimate   =  -13083.66256704 Ry
     estimated scf accuracy    <       0.00069404 Ry

     iteration # 39     ecut=    40.42 Ry     beta=0.20
     Davidson diagonalization with overlap
     ethr =  1.06E-07,  avg # of iterations =  2.2

     negative rho (up, down):  1.402E-02 0.000E+00

     total cpu time spent up to now is     4863.7 secs

     total energy              =  -13083.66280242 Ry
     Harris-Foulkes estimate   =  -13083.66271947 Ry
     estimated scf accuracy    <       0.00030419 Ry

     iteration # 40     ecut=    40.42 Ry     beta=0.20
     Davidson diagonalization with overlap
     ethr =  4.65E-08,  avg # of iterations =  3.0

     negative rho (up, down):  9.770E-03 0.000E+00

     total cpu time spent up to now is     5000.5 secs

     total energy              =  -13083.66279736 Ry
     Harris-Foulkes estimate   =  -13083.66283012 Ry
     estimated scf accuracy    <       0.00011920 Ry

     iteration # 41     ecut=    40.42 Ry     beta=0.20
     Davidson diagonalization with overlap
     ethr =  1.82E-08,  avg # of iterations =  2.0

     negative rho (up, down):  8.433E-03 0.000E+00

     total cpu time spent up to now is     5135.1 secs

     total energy              =  -13083.66278225 Ry
     Harris-Foulkes estimate   =  -13083.66280631 Ry
     estimated scf accuracy    <       0.00006067 Ry

     iteration # 42     ecut=    40.42 Ry     beta=0.20
     Davidson diagonalization with overlap
     ethr =  9.28E-09,  avg # of iterations =  2.0

     negative rho (up, down):  5.918E-03 0.000E+00

     total cpu time spent up to now is     5261.0 secs

     total energy              =  -13083.66274727 Ry
     Harris-Foulkes estimate   =  -13083.66278356 Ry
     estimated scf accuracy    <       0.00004280 Ry

     iteration # 43     ecut=    40.42 Ry     beta=0.20
     Davidson diagonalization with overlap
     ethr =  6.54E-09,  avg # of iterations =  3.0

     negative rho (up, down):  5.740E-03 0.000E+00

     total cpu time spent up to now is     5390.0 secs

     total energy              =  -13083.66274890 Ry
     Harris-Foulkes estimate   =  -13083.66274904 Ry
     estimated scf accuracy    <       0.00002251 Ry

     iteration # 44     ecut=    40.42 Ry     beta=0.20
     Davidson diagonalization with overlap
     ethr =  3.44E-09,  avg # of iterations =  2.2

     negative rho (up, down):  4.961E-03 0.000E+00

     total cpu time spent up to now is     5527.4 secs

     total energy              =  -13083.66274930 Ry
     Harris-Foulkes estimate   =  -13083.66274931 Ry
     estimated scf accuracy    <       0.00001716 Ry

     iteration # 45     ecut=    40.42 Ry     beta=0.20
     Davidson diagonalization with overlap
     ethr =  2.62E-09,  avg # of iterations =  3.0

     negative rho (up, down):  4.768E-03 0.000E+00

     total cpu time spent up to now is     5656.0 secs

     total energy              =  -13083.66274967 Ry
     Harris-Foulkes estimate   =  -13083.66275058 Ry
     estimated scf accuracy    <       0.00000906 Ry

     iteration # 46     ecut=    40.42 Ry     beta=0.20
     Davidson diagonalization with overlap
     ethr =  1.39E-09,  avg # of iterations =  1.2

     negative rho (up, down):  3.969E-03 0.000E+00

     total cpu time spent up to now is     5779.8 secs

     total energy              =  -13083.66274864 Ry
     Harris-Foulkes estimate   =  -13083.66274979 Ry
     estimated scf accuracy    <       0.00000736 Ry

     iteration # 47     ecut=    40.42 Ry     beta=0.20
     Davidson diagonalization with overlap
     ethr =  1.13E-09,  avg # of iterations =  4.0

     negative rho (up, down):  4.053E-03 0.000E+00

     total cpu time spent up to now is     5909.4 secs

     total energy              =  -13083.66274940 Ry
     Harris-Foulkes estimate   =  -13083.66274954 Ry
     estimated scf accuracy    <       0.00000323 Ry

     iteration # 48     ecut=    40.42 Ry     beta=0.20
     Davidson diagonalization with overlap
     ethr =  4.94E-10,  avg # of iterations =  3.0

     negative rho (up, down):  4.042E-03 0.000E+00

     total cpu time spent up to now is     6033.1 secs

     total energy              =  -13083.66274961 Ry
     Harris-Foulkes estimate   =  -13083.66274952 Ry
     estimated scf accuracy    <       0.00000231 Ry

     iteration # 49     ecut=    40.42 Ry     beta=0.20
     Davidson diagonalization with overlap
     ethr =  3.53E-10,  avg # of iterations =  2.2

     negative rho (up, down):  4.035E-03 0.000E+00

     total cpu time spent up to now is     6159.6 secs

     total energy              =  -13083.66274968 Ry
     Harris-Foulkes estimate   =  -13083.66274968 Ry
     estimated scf accuracy    <       0.00000160 Ry

     iteration # 50     ecut=    40.42 Ry     beta=0.20
     Davidson diagonalization with overlap
     ethr =  2.45E-10,  avg # of iterations =  2.0

     negative rho (up, down):  3.917E-03 0.000E+00

     total cpu time spent up to now is     6274.9 secs

     total energy              =  -13083.66274958 Ry
     Harris-Foulkes estimate   =  -13083.66274970 Ry
     estimated scf accuracy    <       0.00000110 Ry

     iteration # 51     ecut=    40.42 Ry     beta=0.20
     Davidson diagonalization with overlap
     ethr =  1.68E-10,  avg # of iterations =  3.0

     negative rho (up, down):  4.134E-03 0.000E+00

     total cpu time spent up to now is     6388.3 secs

     End of self-consistent calculation

          k = 0.0000 0.0000 0.0000 ( 78683 PWs)   bands (ev):

  -113.6290-113.6035-113.6010-113.5891-113.5872-113.5839-113.5838-113.5830
  -113.5817-113.5813-113.5804-113.5800-113.5795-113.5791-113.5785-113.5784
  -113.5773-113.5770-113.5766-113.5766-113.5762-113.5759-113.5758-113.5749
  -113.5748-113.5738-113.5737-113.5731-113.5724-113.5717-113.5712-113.5706
   -71.0756 -71.0723 -71.0587 -71.0522 -71.0513 -71.0498 -71.0466 -71.0459
   -71.0428 -71.0417 -71.0397 -71.0384 -71.0374 -71.0372 -71.0352 -71.0349
   -71.0346 -71.0342 -71.0272 -71.0241 -71.0182 -71.0172 -71.0161 -71.0159
   -71.0137 -71.0114 -71.0109 -71.0089 -71.0087 -71.0086 -71.0080 -71.0077
   -71.0071 -71.0071 -71.0065 -71.0064 -71.0022 -71.0009 -71.0007 -71.0002
   -70.9999 -70.9990 -70.9961 -70.9960 -70.9950 -70.9886 -70.9878 -70.9859
   -70.9841 -70.9835 -70.9832 -70.9827 -70.9822 -70.9813 -70.9763 -70.9754
   -70.9739 -70.9727 -70.9727 -70.9720 -70.9715 -70.9710 -70.9698 -70.9639
   -70.9638 -70.9503 -70.9438 -70.9419 -70.9341 -70.9338 -70.9332 -70.9308
   -70.9260 -70.9203 -70.9197 -70.9182 -70.9182 -70.9164 -70.9161 -70.9156
   -70.9090 -70.9051 -70.9036 -70.9010 -70.9004 -70.8999 -70.8990 -70.8981
   -70.8974 -70.8971 -70.8951 -70.8943 -70.8931 -70.8920 -70.8911 -70.8905
   -24.7335 -22.7557 -22.3887 -16.9688 -15.5834 -14.0941 -12.0719  -9.9099
    -9.3075  -9.2023  -9.1894  -8.8343  -8.1303  -7.8700  -7.5934  -7.4773
    -7.4759  -7.4724  -7.4711  -7.4702  -7.4407  -7.1996  -6.6879  -6.5810
    -6.0211  -5.9640  -5.9106  -5.6051  -5.6042  -5.5990  -5.5788  -5.5776
    -5.5754  -5.4599  -5.4380  -5.4379  -5.4367  -5.4366  -5.4363  -5.4329
    -5.3677  -5.3661  -5.3579  -5.3575  -5.3561  -5.3503  -5.1280  -5.1224
    -5.1208  -4.9587  -4.8428  -4.8410  -4.8398  -4.8385  -4.8377  -4.8373
    -4.7897  -4.7873  -4.7871  -4.7855  -4.7846  -4.7820  -4.5913  -4.5875
    -4.5871  -4.5861  -4.5805  -4.5795  -4.2934  -4.2921  -4.2895  -4.2581
    -4.2552  -4.2539  -4.2507  -4.2503  -4.2501  -4.1811  -4.1794  -4.1766
    -4.1735  -4.1724  -4.1699  -4.1691  -4.1460  -4.1368  -4.1348  -4.1338
    -4.1312  -4.1267  -4.0493  -4.0423  -4.0420  -4.0412  -4.0386  -4.0383
    -4.0382  -4.0370  -4.0354  -4.0345  -4.0271  -4.0265  -4.0224  -4.0223
    -3.9454  -3.9453  -3.8876  -3.8783  -3.8783  -3.8750  -3.8704  -3.8687
    -3.8511  -3.8491  -3.8470  -3.8469  -3.8455  -3.8452  -3.7119  -3.7119
    -3.7104  -3.6130  -3.6111  -3.6106  -3.6091  -3.6073  -3.6069  -3.6066
    -3.4037  -3.4034  -3.3998  -3.3996  -3.3987  -3.3977  -3.3969  -3.3910
    -3.3891  -3.3871  -3.3869  -3.3712  -3.3660  -3.3654  -3.3466  -3.2456
    -3.2267  -3.2266  -3.2153  -3.2135  -3.2113  -3.2111  -3.2105  -3.2092
    -3.1995  -3.1983  -3.1936  -3.1936  -3.1925  -3.1911  -3.1225  -3.1205
    -3.1184  -3.1175  -3.1153  -3.1108  -3.1091  -3.1084  -3.0662  -2.9575
    -2.9574  -2.9559  -2.8781  -2.8753  -2.8702  -2.8691  -2.8688  -2.8675
    -2.8667  -2.8666  -2.7833  -2.7823  -2.7810  -2.7799  -2.7796  -2.7715
    -2.6747  -2.6739  -2.6723  -2.6217  -2.6216  -2.6202  -2.5880  -1.9483
    -1.9240  -1.9190  -1.9174  -1.9121  -1.7927  -1.1850  -0.9997  -0.9962
    -0.9955  -0.9924  -0.9912  -0.9809  -0.8440  -0.8428  -0.8409   0.2646
     0.2693

          k = 0.0000-0.0565 0.0000 ( 78550 PWs)   bands (ev):

  -113.6290-113.6035-113.6010-113.5890-113.5871-113.5851-113.5840-113.5821
  -113.5811-113.5808-113.5804-113.5800-113.5799-113.5797-113.5782-113.5781
  -113.5778-113.5775-113.5767-113.5765-113.5762-113.5757-113.5753-113.5750
  -113.5747-113.5741-113.5736-113.5731-113.5725-113.5717-113.5711-113.5706
   -71.0738 -71.0713 -71.0550 -71.0508 -71.0493 -71.0459 -71.0455 -71.0430
   -71.0430 -71.0420 -71.0419 -71.0413 -71.0388 -71.0369 -71.0351 -71.0349
   -71.0335 -71.0319 -71.0315 -71.0297 -71.0265 -71.0257 -71.0253 -71.0245
   -71.0231 -71.0203 -71.0159 -71.0126 -71.0104 -71.0089 -71.0056 -71.0026
   -71.0016 -71.0011 -71.0003 -70.9984 -70.9970 -70.9966 -70.9946 -70.9940
   -70.9923 -70.9916 -70.9915 -70.9898 -70.9892 -70.9891 -70.9882 -70.9845
   -70.9838 -70.9835 -70.9827 -70.9825 -70.9814 -70.9811 -70.9801 -70.9796
   -70.9773 -70.9770 -70.9767 -70.9755 -70.9732 -70.9724 -70.9688 -70.9666
   -70.9665 -70.9498 -70.9440 -70.9418 -70.9369 -70.9327 -70.9322 -70.9266
   -70.9261 -70.9234 -70.9210 -70.9198 -70.9181 -70.9170 -70.9161 -70.9122
   -70.9075 -70.9053 -70.9044 -70.9024 -70.9011 -70.8997 -70.8991 -70.8973
   -70.8968 -70.8957 -70.8956 -70.8949 -70.8936 -70.8919 -70.8910 -70.8905
   -24.7335 -22.7557 -22.3887 -16.9688 -15.5834 -14.0941 -12.0718  -9.9099
    -9.2083  -9.2015  -8.9033  -8.7968  -8.7311  -8.1313  -7.9117  -7.8774
    -7.8220  -7.5764  -7.2031  -6.6843  -6.4283  -6.4276  -6.4272  -6.4080
    -6.2057  -6.2003  -6.1068  -6.1038  -6.0051  -5.9619  -5.9099  -5.5707
    -5.5690  -5.5680  -5.5668  -5.5073  -5.4984  -5.4565  -5.3273  -5.3232
    -5.2674  -5.2631  -5.2622  -5.2596  -5.0975  -5.0961  -5.0338  -5.0075
    -5.0070  -5.0027  -5.0010  -4.9996  -4.9976  -4.9962  -4.9742  -4.9702
    -4.9424  -4.9391  -4.9186  -4.8088  -4.8055  -4.7587  -4.7563  -4.7504
    -4.7489  -4.4171  -4.4134  -4.3553  -4.3546  -4.2267  -4.2249  -4.2231
    -4.2223  -4.2200  -4.2198  -4.2177  -4.2170  -4.2147  -4.2117  -4.2074
    -4.2063  -4.1958  -4.1935  -4.1777  -4.1691  -4.1682  -4.1629  -4.1603
    -4.1568  -4.1228  -4.1207  -4.0970  -4.0947  -4.0559  -4.0524  -3.9899
    -3.9857  -3.9833  -3.9797  -3.9168  -3.9155  -3.8635  -3.8629  -3.8575
    -3.8572  -3.8554  -3.8540  -3.8530  -3.8504  -3.8492  -3.8485  -3.7962
    -3.7935  -3.6858  -3.6694  -3.6663  -3.6569  -3.6562  -3.6537  -3.6536
    -3.6318  -3.6203  -3.6167  -3.6005  -3.5929  -3.5913  -3.5883  -3.5875
    -3.5827  -3.5390  -3.4754  -3.4723  -3.4432  -3.4411  -3.4378  -3.4377
    -3.4161  -3.4084  -3.3515  -3.3328  -3.2769  -3.2731  -3.2700  -3.2683
    -3.2629  -3.2600  -3.2508  -3.2244  -3.2238  -3.1994  -3.1669  -3.1625
    -3.0829  -3.0823  -3.0782  -3.0780  -3.0515  -3.0507  -3.0479  -3.0467
    -3.0077  -3.0042  -3.0036  -3.0031  -3.0021  -2.9984  -2.9852  -2.9835
    -2.9403  -2.9378  -2.9117  -2.9103  -2.8987  -2.8958  -2.8950  -2.8921
    -2.8683  -2.8654  -2.8555  -2.8528  -2.8282  -2.8242  -2.8155  -2.8137
    -2.7728  -2.7726  -2.7694  -2.7688  -2.7328  -2.6780  -2.6299  -2.6281
    -2.6264  -2.6239  -2.5849  -2.1570  -2.1147  -1.0111  -1.0048  -1.0044
    -1.0026  -0.8809  -0.8739  -0.8544  -0.8009  -0.3733  -0.3538  -0.3073
    -0.2070

          k = 0.0489-0.0282 0.0000 ( 78550 PWs)   bands (ev):

  -113.6290-113.6035-113.6011-113.5887-113.5876-113.5850-113.5834-113.5826
  -113.5815-113.5809-113.5800-113.5798-113.5797-113.5794-113.5789-113.5781
  -113.5776-113.5773-113.5770-113.5764-113.5762-113.5759-113.5755-113.5748
  -113.5746-113.5739-113.5737-113.5730-113.5724-113.5717-113.5713-113.5705
   -71.0745 -71.0708 -71.0539 -71.0500 -71.0489 -71.0457 -71.0447 -71.0442
   -71.0432 -71.0420 -71.0416 -71.0406 -71.0398 -71.0382 -71.0362 -71.0354
   -71.0339 -71.0320 -71.0314 -71.0301 -71.0265 -71.0264 -71.0245 -71.0242
   -71.0224 -71.0211 -71.0148 -71.0129 -71.0098 -71.0069 -71.0062 -71.0032
   -71.0011 -71.0008 -71.0002 -70.9984 -70.9974 -70.9967 -70.9945 -70.9940
   -70.9920 -70.9915 -70.9912 -70.9903 -70.9895 -70.9890 -70.9885 -70.9850
   -70.9842 -70.9837 -70.9830 -70.9822 -70.9817 -70.9807 -70.9801 -70.9795
   -70.9776 -70.9772 -70.9768 -70.9747 -70.9740 -70.9720 -70.9686 -70.9673
   -70.9657 -70.9494 -70.9453 -70.9401 -70.9383 -70.9333 -70.9297 -70.9271
   -70.9255 -70.9245 -70.9225 -70.9202 -70.9173 -70.9171 -70.9142 -70.9120
   -70.9093 -70.9054 -70.9039 -70.9021 -70.9011 -70.8997 -70.8987 -70.8978
   -70.8970 -70.8958 -70.8953 -70.8952 -70.8931 -70.8922 -70.8910 -70.8905
   -24.7335 -22.7557 -22.3887 -16.9688 -15.5834 -14.0941 -12.0718  -9.9098
    -9.2080  -9.2014  -8.8999  -8.7978  -8.7356  -8.1290  -7.9078  -7.8795
    -7.8264  -7.5743  -7.2035  -6.6814  -6.4285  -6.4283  -6.4269  -6.4075
    -6.2067  -6.2002  -6.1070  -6.1053  -6.0091  -5.9616  -5.9092  -5.5709
    -5.5689  -5.5682  -5.5664  -5.5034  -5.4939  -5.4580  -5.3287  -5.3255
    -5.2652  -5.2616  -5.2607  -5.2593  -5.1003  -5.0961  -5.0371  -5.0076
    -5.0060  -5.0025  -5.0009  -4.9991  -4.9974  -4.9967  -4.9836  -4.9700
    -4.9408  -4.9395  -4.9122  -4.8072  -4.8062  -4.7583  -4.7553  -4.7537
    -4.7451  -4.4169  -4.4138  -4.3601  -4.3528  -4.2284  -4.2262  -4.2238
    -4.2213  -4.2195  -4.2190  -4.2178  -4.2171  -4.2148  -4.2130  -4.2071
    -4.2059  -4.1962  -4.1948  -4.1752  -4.1706  -4.1654  -4.1634  -4.1592
    -4.1569  -4.1240  -4.1218  -4.0971  -4.0953  -4.0554  -4.0529  -3.9906
    -3.9855  -3.9842  -3.9811  -3.9169  -3.9123  -3.8635  -3.8632  -3.8584
    -3.8563  -3.8549  -3.8536  -3.8528  -3.8513  -3.8487  -3.8483  -3.7973
    -3.7926  -3.6798  -3.6714  -3.6649  -3.6570  -3.6552  -3.6551  -3.6530
    -3.6317  -3.6217  -3.6168  -3.5996  -3.5942  -3.5905  -3.5898  -3.5853
    -3.5831  -3.5422  -3.4755  -3.4726  -3.4432  -3.4421  -3.4409  -3.4370
    -3.4179  -3.4026  -3.3440  -3.3350  -3.2775  -3.2722  -3.2694  -3.2673
    -3.2637  -3.2605  -3.2506  -3.2249  -3.2229  -3.2057  -3.1670  -3.1630
    -3.0818  -3.0809  -3.0790  -3.0775  -3.0536  -3.0504  -3.0482  -3.0454
    -3.0073  -3.0062  -3.0023  -3.0017  -3.0015  -3.0000  -2.9862  -2.9823
    -2.9396  -2.9383  -2.9128  -2.9097  -2.8978  -2.8965  -2.8949  -2.8921
    -2.8697  -2.8642  -2.8551  -2.8517  -2.8288  -2.8237  -2.8161  -2.8129
    -2.7755  -2.7729  -2.7685  -2.7683  -2.7306  -2.6832  -2.6299  -2.6277
    -2.6265  -2.6254  -2.5808  -2.1620  -2.1064  -1.0111  -1.0076  -1.0032
    -1.0017  -0.8840  -0.8678  -0.8587  -0.8022  -0.3635  -0.3473  -0.3086
    -0.2311

          k =-0.0489-0.0282 0.0000 ( 78550 PWs)   bands (ev):

  -113.6290-113.6035-113.6011-113.5887-113.5876-113.5850-113.5833-113.5826
  -113.5815-113.5809-113.5800-113.5798-113.5797-113.5794-113.5789-113.5781
  -113.5776-113.5773-113.5770-113.5764-113.5762-113.5759-113.5755-113.5747
  -113.5747-113.5739-113.5737-113.5730-113.5724-113.5717-113.5713-113.5705
   -71.0745 -71.0708 -71.0539 -71.0500 -71.0489 -71.0457 -71.0447 -71.0442
   -71.0432 -71.0420 -71.0416 -71.0406 -71.0397 -71.0382 -71.0362 -71.0354
   -71.0339 -71.0320 -71.0313 -71.0300 -71.0265 -71.0264 -71.0245 -71.0242
   -71.0224 -71.0211 -71.0148 -71.0129 -71.0098 -71.0070 -71.0062 -71.0032
   -71.0010 -71.0008 -71.0001 -70.9984 -70.9974 -70.9968 -70.9945 -70.9940
   -70.9920 -70.9915 -70.9912 -70.9902 -70.9895 -70.9890 -70.9885 -70.9849
   -70.9842 -70.9838 -70.9830 -70.9822 -70.9817 -70.9807 -70.9801 -70.9795
   -70.9775 -70.9772 -70.9768 -70.9747 -70.9740 -70.9720 -70.9686 -70.9673
   -70.9657 -70.9494 -70.9453 -70.9401 -70.9383 -70.9333 -70.9297 -70.9272
   -70.9255 -70.9246 -70.9225 -70.9201 -70.9173 -70.9171 -70.9143 -70.9120
   -70.9093 -70.9054 -70.9039 -70.9021 -70.9010 -70.8997 -70.8988 -70.8979
   -70.8970 -70.8958 -70.8953 -70.8952 -70.8931 -70.8922 -70.8910 -70.8905
   -24.7335 -22.7557 -22.3887 -16.9688 -15.5834 -14.0941 -12.0718  -9.9098
    -9.2076  -9.2018  -8.8999  -8.7977  -8.7358  -8.1290  -7.9079  -7.8796
    -7.8263  -7.5743  -7.2036  -6.6813  -6.4285  -6.4283  -6.4270  -6.4075
    -6.2064  -6.2006  -6.1071  -6.1053  -6.0090  -5.9612  -5.9096  -5.5709
    -5.5689  -5.5682  -5.5665  -5.5035  -5.4937  -5.4579  -5.3287  -5.3253
    -5.2652  -5.2617  -5.2606  -5.2592  -5.1005  -5.0960  -5.0373  -5.0077
    -5.0060  -5.0025  -5.0009  -4.9990  -4.9974  -4.9967  -4.9837  -4.9701
    -4.9403  -4.9396  -4.9119  -4.8071  -4.8061  -4.7583  -4.7553  -4.7536
    -4.7455  -4.4169  -4.4138  -4.3599  -4.3528  -4.2283  -4.2261  -4.2237
    -4.2214  -4.2195  -4.2190  -4.2178  -4.2171  -4.2149  -4.2131  -4.2072
    -4.2058  -4.1962  -4.1947  -4.1753  -4.1705  -4.1655  -4.1633  -4.1591
    -4.1568  -4.1240  -4.1218  -4.0972  -4.0953  -4.0554  -4.0530  -3.9904
    -3.9854  -3.9842  -3.9812  -3.9169  -3.9125  -3.8636  -3.8632  -3.8585
    -3.8561  -3.8549  -3.8536  -3.8528  -3.8513  -3.8487  -3.8483  -3.7973
    -3.7926  -3.6802  -3.6714  -3.6649  -3.6570  -3.6552  -3.6550  -3.6530
    -3.6314  -3.6217  -3.6168  -3.5997  -3.5943  -3.5905  -3.5898  -3.5851
    -3.5829  -3.5425  -3.4755  -3.4726  -3.4432  -3.4421  -3.4409  -3.4371
    -3.4179  -3.4028  -3.3440  -3.3348  -3.2774  -3.2722  -3.2694  -3.2673
    -3.2637  -3.2605  -3.2505  -3.2249  -3.2229  -3.2056  -3.1670  -3.1631
    -3.0818  -3.0809  -3.0790  -3.0775  -3.0536  -3.0504  -3.0482  -3.0454
    -3.0073  -3.0062  -3.0022  -3.0017  -3.0016  -3.0000  -2.9862  -2.9823
    -2.9397  -2.9383  -2.9127  -2.9097  -2.8978  -2.8965  -2.8949  -2.8922
    -2.8697  -2.8642  -2.8551  -2.8517  -2.8288  -2.8237  -2.8161  -2.8129
    -2.7755  -2.7729  -2.7684  -2.7684  -2.7306  -2.6830  -2.6299  -2.6277
    -2.6265  -2.6255  -2.5809  -2.1617  -2.1067  -1.0109  -1.0076  -1.0033
    -1.0017  -0.8839  -0.8677  -0.8591  -0.8024  -0.3634  -0.3472  -0.3082
    -0.2312

     the Fermi energy is    -1.0763 ev

!    total energy              =  -13083.66274898 Ry
     Harris-Foulkes estimate   =  -13083.66274963 Ry
     estimated scf accuracy    <       0.00000056 Ry

     The total energy is the sum of the following terms:

     one-electron contribution = -113489.33411788 Ry
     hartree contribution      =   56740.66895409 Ry
     xc contribution           =   -1285.97394084 Ry
     ewald contribution        =   44951.03765102 Ry
     smearing contrib. (-TS)   =      -0.06129538 Ry

     convergence has been achieved in  51 iterations

     Forces acting on atoms (Ry/au):


     negative rho (up, down):  4.134E-03 0.000E+00
     atom    1 type  1   force =     0.00000126    0.00005061    0.00136534
     atom    2 type  1   force =     0.00039793    0.00019426   -0.00094937
     atom    3 type  1   force =    -0.00023385   -0.00017678    0.00057164
     atom    4 type  1   force =    -0.00000885    0.00011554   -0.00067508
     atom    5 type  1   force =    -0.00032726   -0.00005378    0.00078753
     atom    6 type  1   force =    -0.00032977   -0.00025702   -0.00079279
     atom    7 type  1   force =    -0.00028045   -0.00032123    0.00032972
     atom    8 type  1   force =    -0.00013225   -0.00011167   -0.00080862
     atom    9 type  1   force =    -0.00005006    0.00024282    0.00061117
     atom   10 type  1   force =     0.00009613   -0.00171726   -0.00232989
     atom   11 type  1   force =     0.00021913   -0.00018055    0.00055135
     atom   12 type  1   force =    -0.00209851   -0.00004200   -0.00261081
     atom   13 type  1   force =    -0.00000572    0.00001057    0.00065620
     atom   14 type  1   force =     0.00031516   -0.00024299   -0.00079402
     atom   15 type  1   force =    -0.00011604   -0.00007756    0.00098335
     atom   16 type  1   force =     0.00000199    0.00055339   -0.00081749
     atom   17 type  1   force =     0.00000603    0.00014055    0.00001338
     atom   18 type  1   force =    -0.00009630   -0.00172682   -0.00233504
     atom   19 type  1   force =     0.00014350    0.00035895    0.00169474
     atom   20 type  1   force =     0.00005746    0.00276032   -0.00625123
     atom   21 type  1   force =     0.00032584   -0.00004344    0.00077974
     atom   22 type  1   force =    -0.00165544    0.00236787   -0.00356669
     atom   23 type  1   force =     0.00011786   -0.00007236    0.00099712
     atom   24 type  1   force =     0.00013022   -0.00010514   -0.00081341
     atom   25 type  1   force =     0.00004335    0.00025745    0.00061518
     atom   26 type  1   force =    -0.00040697    0.00019642   -0.00096538
     atom   27 type  1   force =    -0.00013283    0.00036048    0.00170184
     atom   28 type  1   force =     0.00211990   -0.00001847   -0.00264716
     atom   29 type  1   force =     0.00000463   -0.00011535    0.00222071
     atom   30 type  1   force =     0.00166769    0.00235453   -0.00358366
     atom   31 type  1   force =     0.00028416   -0.00032206    0.00033571
     atom   32 type  1   force =    -0.00000549   -0.00059665   -0.00049361
     atom   33 type  2   force =     0.00006445   -0.01753999    0.01002878
     atom   34 type  2   force =    -0.00067207    0.00254906   -0.01168670
     atom   35 type  2   force =    -0.00051045    0.01189086   -0.02292389
     atom   36 type  3   force =    -0.00060153    0.01046241   -0.02089776
     atom   37 type  3   force =    -0.00008101   -0.01170984    0.01648127
     atom   38 type  3   force =    -0.00040997    0.02094833   -0.01719693
     atom   39 type  3   force =     0.00106994    0.01083493   -0.00890078
     atom   40 type  3   force =     0.00099901   -0.01244729    0.03928445
     atom   41 type  4   force =    -0.00001293   -0.00624285    0.00936387
     atom   42 type  4   force =     0.00045972   -0.00616053    0.00951181
     atom   43 type  4   force =    -0.00177505    0.00566213   -0.00997225
     atom   44 type  4   force =     0.00185522    0.00564032   -0.01011170
     atom   45 type  4   force =    -0.00246029   -0.00689151    0.01031124
     atom   46 type  4   force =     0.00179770   -0.00709333    0.01079305
     atom   47 type  4   force =    -0.00009593    0.00281194   -0.00120132
     atom   48 type  4   force =     0.00032075   -0.00649727    0.01333641

     Total force =     0.077766     Total SCF correction =     0.002469
 !ASE

     Writing output data file calc.save
     Check: negative starting charge=   -0.009956
     NEW-OLD atomic charge density approx. for the potential
     Check: negative starting charge=   -0.009868

     negative rho (up, down):  4.760E-03 0.000E+00

     total cpu time spent up to now is     6474.9 secs

     per-process dynamical memory:   388.4 Mb

     Self-consistent Calculation

     iteration #  1     ecut=    40.42 Ry     beta=0.20
     Davidson diagonalization with overlap
     ethr =  1.68E-10,  avg # of iterations = 13.8

     negative rho (up, down):  4.146E-03 0.000E+00

     total cpu time spent up to now is     6879.3 secs

     total energy              =  -13083.53292163 Ry
     Harris-Foulkes estimate   =  -13083.54074886 Ry
     estimated scf accuracy    <       0.06925983 Ry

     iteration #  2     ecut=    40.42 Ry     beta=0.20
     Davidson diagonalization with overlap
     ethr =  1.06E-05,  avg # of iterations =  2.0

     negative rho (up, down):  4.923E-03 0.000E+00

     total cpu time spent up to now is     7001.0 secs

     total energy              =  -13083.51057088 Ry
     Harris-Foulkes estimate   =  -13083.53320895 Ry
     estimated scf accuracy    <       0.04920481 Ry

     iteration #  3     ecut=    40.42 Ry     beta=0.20
     Davidson diagonalization with overlap
     ethr =  7.52E-06,  avg # of iterations =  3.0

     negative rho (up, down):  3.900E-03 0.000E+00

     total cpu time spent up to now is     7139.8 secs

     total energy              =  -13083.51610513 Ry
     Harris-Foulkes estimate   =  -13083.51695029 Ry
     estimated scf accuracy    <       0.00659078 Ry

     iteration #  4     ecut=    40.42 Ry     beta=0.20
     Davidson diagonalization with overlap
     ethr =  1.01E-06,  avg # of iterations =  3.0

     negative rho (up, down):  3.484E-03 0.000E+00

     total cpu time spent up to now is     7269.0 secs

     total energy              =  -13083.51571900 Ry
     Harris-Foulkes estimate   =  -13083.51640379 Ry
     estimated scf accuracy    <       0.00404310 Ry

     iteration #  5     ecut=    40.42 Ry     beta=0.20
     Davidson diagonalization with overlap
     ethr =  6.18E-07,  avg # of iterations =  3.0

     negative rho (up, down):  2.780E-03 0.000E+00

     total cpu time spent up to now is     7400.1 secs

     total energy              =  -13083.51550112 Ry
     Harris-Foulkes estimate   =  -13083.51588796 Ry
     estimated scf accuracy    <       0.00271180 Ry

     iteration #  6     ecut=    40.42 Ry     beta=0.20
     Davidson diagonalization with overlap
     ethr =  4.15E-07,  avg # of iterations =  2.2

     negative rho (up, down):  2.502E-03 0.000E+00

     total cpu time spent up to now is     7540.2 secs

     total energy              =  -13083.51550917 Ry
     Harris-Foulkes estimate   =  -13083.51560775 Ry
     estimated scf accuracy    <       0.00175902 Ry

     iteration #  7     ecut=    40.42 Ry     beta=0.20
     Davidson diagonalization with overlap
     ethr =  2.69E-07,  avg # of iterations =  2.5

     negative rho (up, down):  2.213E-03 0.000E+00

     total cpu time spent up to now is     7664.1 secs

     total energy              =  -13083.51522785 Ry
     Harris-Foulkes estimate   =  -13083.51553449 Ry
     estimated scf accuracy    <       0.00158495 Ry

     iteration #  8     ecut=    40.42 Ry     beta=0.20
     Davidson diagonalization with overlap
     ethr =  2.42E-07,  avg # of iterations =  3.2

     negative rho (up, down):  2.186E-03 0.000E+00

     total cpu time spent up to now is     7798.0 secs

     total energy              =  -13083.51527216 Ry
     Harris-Foulkes estimate   =  -13083.51535396 Ry
     estimated scf accuracy    <       0.00159890 Ry

     iteration #  9     ecut=    40.42 Ry     beta=0.20
     Davidson diagonalization with overlap
     ethr =  2.42E-07,  avg # of iterations =  1.0

     negative rho (up, down):  3.012E-03 0.000E+00

     total cpu time spent up to now is     7920.6 secs

     total energy              =  -13083.51498391 Ry
     Harris-Foulkes estimate   =  -13083.51529227 Ry
     estimated scf accuracy    <       0.00115005 Ry

     iteration # 10     ecut=    40.42 Ry     beta=0.20
     Davidson diagonalization with overlap
     ethr =  1.76E-07,  avg # of iterations =  3.0

     negative rho (up, down):  3.293E-03 0.000E+00

     total cpu time spent up to now is     8049.0 secs

     total energy              =  -13083.51495542 Ry
     Harris-Foulkes estimate   =  -13083.51505101 Ry
     estimated scf accuracy    <       0.00056256 Ry

     iteration # 11     ecut=    40.42 Ry     beta=0.20
     Davidson diagonalization with overlap
     ethr =  8.60E-08,  avg # of iterations =  3.0

     negative rho (up, down):  3.506E-03 0.000E+00

     total cpu time spent up to now is     8176.0 secs

     total energy              =  -13083.51486100 Ry
     Harris-Foulkes estimate   =  -13083.51497773 Ry
     estimated scf accuracy    <       0.00042403 Ry

     iteration # 12     ecut=    40.42 Ry     beta=0.20
     Davidson diagonalization with overlap
     ethr =  6.48E-08,  avg # of iterations =  3.0

     negative rho (up, down):  2.869E-03 0.000E+00

     total cpu time spent up to now is     8314.1 secs

     total energy              =  -13083.51485202 Ry
     Harris-Foulkes estimate   =  -13083.51488405 Ry
     estimated scf accuracy    <       0.00018971 Ry

     iteration # 13     ecut=    40.42 Ry     beta=0.20
     Davidson diagonalization with overlap
     ethr =  2.90E-08,  avg # of iterations =  3.0

     negative rho (up, down):  2.665E-03 0.000E+00

     total cpu time spent up to now is     8443.8 secs

     total energy              =  -13083.51484462 Ry
     Harris-Foulkes estimate   =  -13083.51485897 Ry
     estimated scf accuracy    <       0.00010687 Ry

     iteration # 14     ecut=    40.42 Ry     beta=0.20
     Davidson diagonalization with overlap
     ethr =  1.63E-08,  avg # of iterations =  3.0

     negative rho (up, down):  2.441E-03 0.000E+00

     total cpu time spent up to now is     8579.2 secs

     total energy              =  -13083.51484555 Ry
     Harris-Foulkes estimate   =  -13083.51484896 Ry
     estimated scf accuracy    <       0.00007173 Ry

     iteration # 15     ecut=    40.42 Ry     beta=0.20
     Davidson diagonalization with overlap
     ethr =  1.10E-08,  avg # of iterations =  2.0

     negative rho (up, down):  2.381E-03 0.000E+00

     total cpu time spent up to now is     8707.6 secs

     total energy              =  -13083.51483715 Ry
     Harris-Foulkes estimate   =  -13083.51484687 Ry
     estimated scf accuracy    <       0.00004867 Ry

     iteration # 16     ecut=    40.42 Ry     beta=0.20
     Davidson diagonalization with overlap
     ethr =  7.44E-09,  avg # of iterations =  3.0

     negative rho (up, down):  2.552E-03 0.000E+00

     total cpu time spent up to now is     8842.8 secs

     total energy              =  -13083.51483175 Ry
     Harris-Foulkes estimate   =  -13083.51483904 Ry
     estimated scf accuracy    <       0.00002791 Ry

     iteration # 17     ecut=    40.42 Ry     beta=0.20
     Davidson diagonalization with overlap
     ethr =  4.27E-09,  avg # of iterations =  3.0

     negative rho (up, down):  2.699E-03 0.000E+00

     total cpu time spent up to now is     8971.2 secs

     total energy              =  -13083.51483052 Ry
     Harris-Foulkes estimate   =  -13083.51483336 Ry
     estimated scf accuracy    <       0.00001466 Ry

     iteration # 18     ecut=    40.42 Ry     beta=0.20
     Davidson diagonalization with overlap
     ethr =  2.24E-09,  avg # of iterations =  3.0

     negative rho (up, down):  3.050E-03 0.000E+00

     total cpu time spent up to now is     9097.0 secs

     total energy              =  -13083.51482846 Ry
     Harris-Foulkes estimate   =  -13083.51483104 Ry
     estimated scf accuracy    <       0.00000969 Ry

     iteration # 19     ecut=    40.42 Ry     beta=0.20
     Davidson diagonalization with overlap
     ethr =  1.48E-09,  avg # of iterations =  3.0

     negative rho (up, down):  3.165E-03 0.000E+00

     total cpu time spent up to now is     9225.0 secs

     total energy              =  -13083.51482894 Ry
     Harris-Foulkes estimate   =  -13083.51482968 Ry
     estimated scf accuracy    <       0.00000633 Ry

     iteration # 20     ecut=    40.42 Ry     beta=0.20
     Davidson diagonalization with overlap
     ethr =  9.67E-10,  avg # of iterations =  2.2

     negative rho (up, down):  3.260E-03 0.000E+00

     total cpu time spent up to now is     9344.0 secs

     total energy              =  -13083.51482896 Ry
     Harris-Foulkes estimate   =  -13083.51482925 Ry
     estimated scf accuracy    <       0.00000282 Ry

     iteration # 21     ecut=    40.42 Ry     beta=0.20
     Davidson diagonalization with overlap
     ethr =  4.31E-10,  avg # of iterations =  2.0

     negative rho (up, down):  3.526E-03 0.000E+00

     total cpu time spent up to now is     9467.9 secs

     total energy              =  -13083.51482825 Ry
     Harris-Foulkes estimate   =  -13083.51482905 Ry
     estimated scf accuracy    <       0.00000211 Ry

     iteration # 22     ecut=    40.42 Ry     beta=0.20
     Davidson diagonalization with overlap
     ethr =  3.22E-10,  avg # of iterations =  3.0

     negative rho (up, down):  3.606E-03 0.000E+00

     total cpu time spent up to now is     9604.1 secs

     total energy              =  -13083.51482808 Ry
     Harris-Foulkes estimate   =  -13083.51482853 Ry
     estimated scf accuracy    <       0.00000153 Ry

     iteration # 23     ecut=    40.42 Ry     beta=0.20
     Davidson diagonalization with overlap
     ethr =  2.34E-10,  avg # of iterations =  3.0

     negative rho (up, down):  4.165E-03 0.000E+00

     total cpu time spent up to now is     9716.0 secs

     End of self-consistent calculation

          k = 0.0000 0.0000 0.0000 ( 78683 PWs)   bands (ev):

  -113.4575-113.4398-113.4387-113.4373-113.4291-113.4285-113.4268-113.4252
  -113.4245-113.4243-113.4223-113.4220-113.4211-113.4204-113.4199-113.4197
  -113.4186-113.4182-113.4176-113.4173-113.4170-113.4167-113.4154-113.4148
  -113.4145-113.4136-113.4132-113.4119-113.4114-113.4104-113.4103-113.4100
   -70.9087 -70.9050 -70.8986 -70.8928 -70.8915 -70.8908 -70.8871 -70.8863
   -70.8829 -70.8816 -70.8803 -70.8787 -70.8784 -70.8779 -70.8759 -70.8757
   -70.8743 -70.8742 -70.8657 -70.8630 -70.8580 -70.8575 -70.8560 -70.8554
   -70.8548 -70.8518 -70.8514 -70.8506 -70.8502 -70.8493 -70.8486 -70.8482
   -70.8479 -70.8471 -70.8465 -70.8455 -70.8425 -70.8420 -70.8418 -70.8404
   -70.8392 -70.8384 -70.8373 -70.8363 -70.8350 -70.8284 -70.8276 -70.8262
   -70.8244 -70.8243 -70.8234 -70.8226 -70.8226 -70.8215 -70.8159 -70.8149
   -70.8143 -70.8127 -70.8126 -70.8121 -70.8120 -70.8104 -70.8042 -70.8036
   -70.8035 -70.7892 -70.7848 -70.7838 -70.7774 -70.7768 -70.7754 -70.7727
   -70.7670 -70.7653 -70.7619 -70.7616 -70.7600 -70.7597 -70.7580 -70.7579
   -70.7547 -70.7490 -70.7464 -70.7428 -70.7415 -70.7412 -70.7406 -70.7393
   -70.7383 -70.7377 -70.7360 -70.7356 -70.7340 -70.7322 -70.7315 -70.7310
   -26.4004 -24.7518 -22.3790 -17.1264 -15.4322 -13.6648 -11.1879 -10.1587
    -9.5583  -9.5278  -9.1627  -9.1352  -8.6340  -8.4992  -7.9654  -7.4079
    -7.3295  -7.3253  -7.3247  -7.3224  -7.3167  -7.2874  -7.1254  -6.5458
    -6.4478  -6.2669  -6.2425  -5.4528  -5.4515  -5.4483  -5.4296  -5.4250
    -5.4231  -5.3863  -5.2913  -5.2906  -5.2905  -5.2876  -5.2860  -5.2860
    -5.2099  -5.2071  -5.2018  -5.1991  -5.1979  -5.1964  -4.9793  -4.9697
    -4.9693  -4.8115  -4.6921  -4.6877  -4.6875  -4.6874  -4.6866  -4.6812
    -4.6452  -4.6376  -4.6355  -4.6332  -4.6330  -4.6273  -4.4741  -4.4369
    -4.4350  -4.4328  -4.4290  -4.4248  -4.3007  -4.1298  -4.1270  -4.1258
    -4.0963  -4.0956  -4.0952  -4.0930  -4.0928  -4.0887  -4.0229  -4.0188
    -4.0178  -4.0163  -4.0127  -4.0070  -4.0006  -3.9872  -3.9806  -3.9785
    -3.9758  -3.9655  -3.9653  -3.8821  -3.8813  -3.8807  -3.8805  -3.8793
    -3.8776  -3.8775  -3.8763  -3.8744  -3.8739  -3.8647  -3.8645  -3.8583
    -3.8450  -3.7872  -3.7871  -3.7179  -3.7166  -3.7159  -3.7115  -3.7073
    -3.6926  -3.6895  -3.6885  -3.6883  -3.6856  -3.6824  -3.6807  -3.5593
    -3.5593  -3.5583  -3.4602  -3.4582  -3.4571  -3.4551  -3.4543  -3.4532
    -3.2454  -3.2447  -3.2437  -3.2409  -3.2403  -3.2396  -3.2353  -3.2305
    -3.2285  -3.2262  -3.2204  -3.2092  -3.2050  -3.2019  -3.1946  -3.0934
    -3.0689  -3.0681  -3.0526  -3.0513  -3.0509  -3.0490  -3.0488  -3.0477
    -3.0336  -3.0320  -3.0309  -3.0305  -3.0283  -3.0266  -2.9594  -2.9574
    -2.9557  -2.9551  -2.9521  -2.9506  -2.9488  -2.9469  -2.9011  -2.7936
    -2.7935  -2.7927  -2.7728  -2.7122  -2.7095  -2.7072  -2.7063  -2.7063
    -2.7051  -2.7027  -2.7023  -2.6211  -2.6206  -2.6183  -2.6182  -2.6178
    -2.6043  -2.5149  -2.5141  -2.5130  -2.4606  -2.4605  -2.4593  -1.7795
    -1.7651  -1.7572  -1.7538  -1.7451  -1.5983  -1.0241  -0.8404  -0.8378
    -0.8369  -0.8350  -0.8287  -0.8179  -0.6860  -0.6848  -0.6807   0.4285
     0.4302

          k = 0.0000-0.0565 0.0000 ( 78550 PWs)   bands (ev):

  -113.4575-113.4398-113.4387-113.4373-113.4290-113.4285-113.4269-113.4254
  -113.4252-113.4238-113.4219-113.4216-113.4211-113.4206-113.4200-113.4198
  -113.4185-113.4182-113.4179-113.4175-113.4168-113.4167-113.4153-113.4146
  -113.4144-113.4136-113.4132-113.4121-113.4114-113.4105-113.4103-113.4099
   -70.9056 -70.9027 -70.8935 -70.8922 -70.8914 -70.8874 -70.8867 -70.8843
   -70.8837 -70.8829 -70.8816 -70.8814 -70.8812 -70.8759 -70.8753 -70.8742
   -70.8741 -70.8722 -70.8712 -70.8701 -70.8665 -70.8665 -70.8647 -70.8647
   -70.8638 -70.8598 -70.8553 -70.8517 -70.8504 -70.8486 -70.8454 -70.8432
   -70.8423 -70.8423 -70.8416 -70.8391 -70.8368 -70.8364 -70.8350 -70.8342
   -70.8340 -70.8327 -70.8323 -70.8308 -70.8287 -70.8285 -70.8282 -70.8252
   -70.8240 -70.8236 -70.8231 -70.8225 -70.8215 -70.8209 -70.8197 -70.8191
   -70.8179 -70.8166 -70.8163 -70.8161 -70.8127 -70.8121 -70.8070 -70.8057
   -70.8030 -70.7901 -70.7843 -70.7827 -70.7792 -70.7766 -70.7748 -70.7692
   -70.7690 -70.7656 -70.7629 -70.7619 -70.7606 -70.7597 -70.7591 -70.7576
   -70.7522 -70.7483 -70.7468 -70.7445 -70.7426 -70.7405 -70.7402 -70.7390
   -70.7377 -70.7371 -70.7366 -70.7357 -70.7343 -70.7322 -70.7315 -70.7310
   -26.4004 -24.7518 -22.3790 -17.1264 -15.4322 -13.6648 -11.1877 -10.1587
    -9.5570  -9.5280  -9.1616  -8.6654  -8.6468  -8.6335  -8.4859  -7.9664
    -7.7327  -7.7320  -7.2900  -7.2059  -6.5452  -6.2817  -6.2801  -6.2777
    -6.2671  -6.2653  -6.2520  -6.0453  -6.0284  -5.9554  -5.9538  -5.4224
    -5.4199  -5.4178  -5.4159  -5.4146  -5.3434  -5.3137  -5.1712  -5.1684
    -5.1146  -5.1095  -5.1067  -5.1066  -4.9478  -4.9471  -4.8933  -4.8555
    -4.8506  -4.8502  -4.8471  -4.8461  -4.8444  -4.8430  -4.8236  -4.8175
    -4.7923  -4.7890  -4.7598  -4.6586  -4.6537  -4.6112  -4.6045  -4.6016
    -4.5927  -4.3626  -4.2620  -4.2534  -4.2001  -4.1819  -4.0652  -4.0634
    -4.0626  -4.0610  -4.0599  -4.0570  -4.0568  -4.0540  -4.0532  -4.0500
    -4.0489  -4.0409  -4.0331  -4.0327  -4.0145  -4.0114  -4.0041  -4.0021
    -4.0001  -3.9836  -3.9636  -3.9629  -3.9343  -3.9334  -3.8940  -3.8892
    -3.8257  -3.8257  -3.8161  -3.8130  -3.7582  -3.7562  -3.7052  -3.7024
    -3.6997  -3.6989  -3.6980  -3.6969  -3.6957  -3.6926  -3.6923  -3.6821
    -3.6394  -3.6357  -3.5177  -3.5136  -3.4993  -3.4989  -3.4972  -3.4968
    -3.4775  -3.4657  -3.4608  -3.4519  -3.4353  -3.4346  -3.4301  -3.4263
    -3.4244  -3.4212  -3.3162  -3.3148  -3.2839  -3.2832  -3.2801  -3.2748
    -3.2525  -3.2515  -3.1883  -3.1784  -3.1180  -3.1143  -3.1070  -3.1069
    -3.0999  -3.0979  -3.0909  -3.0596  -3.0590  -3.0417  -3.0049  -3.0009
    -2.9221  -2.9204  -2.9176  -2.9167  -2.8869  -2.8865  -2.8849  -2.8847
    -2.8454  -2.8429  -2.8423  -2.8406  -2.8401  -2.8348  -2.8224  -2.8181
    -2.7769  -2.7748  -2.7746  -2.7488  -2.7474  -2.7365  -2.7333  -2.7329
    -2.7283  -2.7040  -2.7035  -2.6938  -2.6906  -2.6673  -2.6633  -2.6530
    -2.6508  -2.6110  -2.6091  -2.6073  -2.6071  -2.5736  -2.5058  -2.4702
    -2.4660  -2.4657  -2.4610  -1.9917  -1.9432  -0.8512  -0.8475  -0.8445
    -0.8428  -0.7096  -0.7068  -0.6831  -0.6270  -0.2066  -0.1856  -0.1649
    -0.0239

          k = 0.0489-0.0282 0.0000 ( 78550 PWs)   bands (ev):

  -113.4575-113.4398-113.4387-113.4373-113.4288-113.4286-113.4267-113.4263
  -113.4244-113.4232-113.4224-113.4215-113.4210-113.4208-113.4200-113.4195
  -113.4193-113.4179-113.4178-113.4174-113.4168-113.4165-113.4155-113.4149
  -113.4142-113.4136-113.4132-113.4120-113.4113-113.4108-113.4104-113.4097
   -70.9069 -70.9021 -70.8933 -70.8906 -70.8899 -70.8878 -70.8869 -70.8850
   -70.8835 -70.8825 -70.8821 -70.8811 -70.8807 -70.8778 -70.8757 -70.8747
   -70.8742 -70.8722 -70.8718 -70.8708 -70.8669 -70.8666 -70.8647 -70.8643
   -70.8628 -70.8609 -70.8540 -70.8524 -70.8499 -70.8464 -70.8460 -70.8441
   -70.8423 -70.8416 -70.8414 -70.8383 -70.8377 -70.8362 -70.8350 -70.8344
   -70.8337 -70.8327 -70.8316 -70.8307 -70.8296 -70.8287 -70.8278 -70.8262
   -70.8245 -70.8238 -70.8233 -70.8226 -70.8216 -70.8207 -70.8200 -70.8188
   -70.8181 -70.8173 -70.8164 -70.8147 -70.8134 -70.8115 -70.8076 -70.8051
   -70.8029 -70.7891 -70.7857 -70.7829 -70.7800 -70.7747 -70.7737 -70.7702
   -70.7679 -70.7665 -70.7647 -70.7624 -70.7612 -70.7593 -70.7573 -70.7559
   -70.7530 -70.7494 -70.7469 -70.7433 -70.7422 -70.7413 -70.7401 -70.7388
   -70.7378 -70.7374 -70.7362 -70.7359 -70.7341 -70.7323 -70.7315 -70.7310
   -26.4004 -24.7518 -22.3790 -17.1264 -15.4322 -13.6648 -11.1878 -10.1587
    -9.5570  -9.5279  -9.1614  -8.6652  -8.6484  -8.6327  -8.4861  -7.9646
    -7.7419  -7.7279  -7.2897  -7.1997  -6.5441  -6.2860  -6.2812  -6.2786
    -6.2668  -6.2659  -6.2486  -6.0473  -6.0300  -5.9566  -5.9549  -5.4213
    -5.4194  -5.4183  -5.4175  -5.3856  -5.3416  -5.3351  -5.1744  -5.1687
    -5.1112  -5.1093  -5.1071  -5.1060  -4.9521  -4.9474  -4.8941  -4.8540
    -4.8520  -4.8485  -4.8469  -4.8458  -4.8446  -4.8424  -4.8308  -4.8193
    -4.7916  -4.7879  -4.7525  -4.6571  -4.6548  -4.6123  -4.6045  -4.6031
    -4.5880  -4.3655  -4.2624  -4.2530  -4.2035  -4.1790  -4.0665  -4.0628
    -4.0621  -4.0603  -4.0594  -4.0593  -4.0573  -4.0567  -4.0527  -4.0499
    -4.0470  -4.0411  -4.0348  -4.0327  -4.0139  -4.0115  -4.0046  -4.0026
    -3.9968  -3.9814  -3.9698  -3.9625  -3.9361  -3.9320  -3.8940  -3.8895
    -3.8269  -3.8251  -3.8186  -3.8141  -3.7586  -3.7510  -3.7049  -3.7036
    -3.6998  -3.6988  -3.6980  -3.6964  -3.6955  -3.6929  -3.6915  -3.6804
    -3.6405  -3.6346  -3.5205  -3.5119  -3.5007  -3.4986  -3.4973  -3.4965
    -3.4748  -3.4664  -3.4610  -3.4516  -3.4358  -3.4334  -3.4317  -3.4263
    -3.4252  -3.4169  -3.3164  -3.3159  -3.2835  -3.2830  -3.2811  -3.2778
    -3.2591  -3.2475  -3.1809  -3.1792  -3.1194  -3.1135  -3.1069  -3.1054
    -3.1001  -3.0989  -3.0879  -3.0597  -3.0570  -3.0477  -3.0058  -3.0009
    -2.9209  -2.9189  -2.9181  -2.9164  -2.8886  -2.8873  -2.8844  -2.8830
    -2.8456  -2.8440  -2.8418  -2.8395  -2.8384  -2.8363  -2.8233  -2.8178
    -2.7825  -2.7751  -2.7684  -2.7502  -2.7464  -2.7354  -2.7342  -2.7322
    -2.7278  -2.7059  -2.7013  -2.6922  -2.6905  -2.6680  -2.6626  -2.6527
    -2.6510  -2.6117  -2.6101  -2.6075  -2.6071  -2.5722  -2.5076  -2.4701
    -2.4673  -2.4645  -2.4625  -1.9985  -1.9327  -0.8510  -0.8478  -0.8451
    -0.8431  -0.7165  -0.7020  -0.6847  -0.6278  -0.1933  -0.1792  -0.1583
    -0.0544

          k =-0.0489-0.0282 0.0000 ( 78550 PWs)   bands (ev):

  -113.4575-113.4398-113.4387-113.4373-113.4288-113.4286-113.4268-113.4263
  -113.4244-113.4233-113.4224-113.4215-113.4210-113.4208-113.4200-113.4195
  -113.4193-113.4180-113.4176-113.4175-113.4168-113.4165-113.4155-113.4148
  -113.4142-113.4136-113.4132-113.4120-113.4113-113.4108-113.4104-113.4097
   -70.9069 -70.9021 -70.8933 -70.8906 -70.8899 -70.8878 -70.8869 -70.8850
   -70.8835 -70.8824 -70.8821 -70.8810 -70.8807 -70.8779 -70.8757 -70.8748
   -70.8742 -70.8721 -70.8718 -70.8708 -70.8669 -70.8666 -70.8647 -70.8643
   -70.8628 -70.8609 -70.8540 -70.8524 -70.8499 -70.8465 -70.8460 -70.8441
   -70.8423 -70.8415 -70.8414 -70.8383 -70.8377 -70.8362 -70.8350 -70.8344
   -70.8337 -70.8326 -70.8316 -70.8306 -70.8296 -70.8287 -70.8277 -70.8263
   -70.8245 -70.8238 -70.8232 -70.8226 -70.8216 -70.8208 -70.8200 -70.8187
   -70.8181 -70.8172 -70.8163 -70.8148 -70.8134 -70.8115 -70.8076 -70.8051
   -70.8029 -70.7890 -70.7858 -70.7828 -70.7800 -70.7747 -70.7736 -70.7703
   -70.7679 -70.7667 -70.7647 -70.7623 -70.7612 -70.7593 -70.7573 -70.7559
   -70.7529 -70.7495 -70.7469 -70.7433 -70.7421 -70.7413 -70.7402 -70.7388
   -70.7377 -70.7374 -70.7362 -70.7359 -70.7342 -70.7323 -70.7315 -70.7310
   -26.4004 -24.7518 -22.3790 -17.1264 -15.4322 -13.6648 -11.1878 -10.1587
    -9.5568  -9.5280  -9.1613  -8.6652  -8.6484  -8.6327  -8.4862  -7.9647
    -7.7419  -7.7280  -7.2898  -7.1995  -6.5441  -6.2861  -6.2812  -6.2786
    -6.2678  -6.2653  -6.2483  -6.0470  -6.0303  -5.9565  -5.9550  -5.4217
    -5.4194  -5.4183  -5.4175  -5.3855  -5.3407  -5.3355  -5.1745  -5.1688
    -5.1112  -5.1094  -5.1070  -5.1059  -4.9523  -4.9474  -4.8944  -4.8539
    -4.8520  -4.8484  -4.8470  -4.8458  -4.8445  -4.8425  -4.8311  -4.8192
    -4.7910  -4.7879  -4.7519  -4.6568  -4.6548  -4.6129  -4.6045  -4.6031
    -4.5886  -4.3651  -4.2624  -4.2530  -4.2035  -4.1792  -4.0665  -4.0628
    -4.0620  -4.0602  -4.0594  -4.0593  -4.0573  -4.0568  -4.0526  -4.0499
    -4.0470  -4.0411  -4.0347  -4.0327  -4.0138  -4.0116  -4.0046  -4.0027
    -3.9968  -3.9816  -3.9697  -3.9624  -3.9361  -3.9320  -3.8940  -3.8895
    -3.8269  -3.8251  -3.8187  -3.8141  -3.7586  -3.7511  -3.7049  -3.7036
    -3.6998  -3.6987  -3.6980  -3.6965  -3.6955  -3.6929  -3.6915  -3.6805
    -3.6404  -3.6346  -3.5205  -3.5119  -3.5007  -3.4986  -3.4974  -3.4965
    -3.4747  -3.4664  -3.4610  -3.4516  -3.4357  -3.4333  -3.4318  -3.4264
    -3.4251  -3.4169  -3.3164  -3.3159  -3.2834  -3.2830  -3.2811  -3.2778
    -3.2590  -3.2476  -3.1811  -3.1791  -3.1194  -3.1135  -3.1069  -3.1054
    -3.1001  -3.0990  -3.0880  -3.0597  -3.0570  -3.0477  -3.0058  -3.0010
    -2.9208  -2.9189  -2.9181  -2.9164  -2.8886  -2.8873  -2.8844  -2.8830
    -2.8456  -2.8439  -2.8418  -2.8395  -2.8385  -2.8364  -2.8233  -2.8178
    -2.7825  -2.7751  -2.7684  -2.7501  -2.7463  -2.7353  -2.7343  -2.7323
    -2.7279  -2.7059  -2.7014  -2.6922  -2.6905  -2.6680  -2.6626  -2.6527
    -2.6510  -2.6117  -2.6101  -2.6075  -2.6072  -2.5720  -2.5076  -2.4701
    -2.4673  -2.4645  -2.4625  -1.9983  -1.9330  -0.8509  -0.8478  -0.8452
    -0.8431  -0.7164  -0.7020  -0.6851  -0.6281  -0.1928  -0.1793  -0.1581
    -0.0545

     the Fermi energy is    -0.9149 ev

!    total energy              =  -13083.51482668 Ry
     Harris-Foulkes estimate   =  -13083.51482821 Ry
     estimated scf accuracy    <       0.00000067 Ry

     The total energy is the sum of the following terms:

     one-electron contribution = -113590.31081328 Ry
     hartree contribution      =   56794.50388300 Ry
     xc contribution           =   -1286.24050097 Ry
     ewald contribution        =   44998.59342916 Ry
     smearing contrib. (-TS)   =      -0.06082458 Ry

     convergence has been achieved in  23 iterations

     Forces acting on atoms (Ry/au):


     negative rho (up, down):  4.165E-03 0.000E+00
     atom    1 type  1   force =    -0.00000057   -0.00006733    0.00022644
     atom    2 type  1   force =    -0.00010876   -0.00014732    0.00019740
     atom    3 type  1   force =     0.00024220   -0.00024168   -0.00098033
     atom    4 type  1   force =     0.00000988   -0.00013583    0.00040540
     atom    5 type  1   force =     0.00023699   -0.00004008   -0.00106013
     atom    6 type  1   force =     0.00058503    0.00020200    0.00028823
     atom    7 type  1   force =    -0.00009045    0.00059959   -0.00140126
     atom    8 type  1   force =     0.00009368    0.00037454    0.00036904
     atom    9 type  1   force =    -0.00019683   -0.00000285   -0.00080793
     atom   10 type  1   force =    -0.00033895   -0.00090492   -0.00091044
     atom   11 type  1   force =    -0.00022503   -0.00022978   -0.00095051
     atom   12 type  1   force =    -0.00112254   -0.00015766   -0.00038564
     atom   13 type  1   force =     0.00001020   -0.00008088   -0.00030689
     atom   14 type  1   force =    -0.00058128    0.00019057    0.00027653
     atom   15 type  1   force =     0.00003253    0.00007143   -0.00011377
     atom   16 type  1   force =    -0.00000524   -0.00030899    0.00022777
     atom   17 type  1   force =    -0.00000672   -0.00000462   -0.00120224
     atom   18 type  1   force =     0.00034124   -0.00090643   -0.00089428
     atom   19 type  1   force =    -0.00023421   -0.00028353   -0.00025022
     atom   20 type  1   force =     0.00002340    0.00100588    0.00424302
     atom   21 type  1   force =    -0.00023598   -0.00005280   -0.00103224
     atom   22 type  1   force =    -0.00093948    0.00147646   -0.00066220
     atom   23 type  1   force =    -0.00002989    0.00006508   -0.00012063
     atom   24 type  1   force =    -0.00008447    0.00037337    0.00037315
     atom   25 type  1   force =     0.00020361   -0.00001118   -0.00081702
     atom   26 type  1   force =     0.00010551   -0.00014833    0.00020516
     atom   27 type  1   force =     0.00022471   -0.00029250   -0.00028245
     atom   28 type  1   force =     0.00114328   -0.00016776   -0.00037514
     atom   29 type  1   force =    -0.00001061    0.00040400   -0.00093132
     atom   30 type  1   force =     0.00094373    0.00149691   -0.00066939
     atom   31 type  1   force =     0.00008410    0.00059575   -0.00141113
     atom   32 type  1   force =    -0.00000248    0.00048538    0.00032749
     atom   33 type  2   force =     0.00779909    0.29382746   -0.36448408
     atom   34 type  2   force =     0.00070983   -0.03393873    0.03192502
     atom   35 type  2   force =     0.01264500   -0.52757184    0.53947431
     atom   36 type  3   force =     0.00150088   -0.03057783    0.13771247
     atom   37 type  3   force =     0.00022667    0.04286756   -0.10191666
     atom   38 type  3   force =    -0.00647461   -0.29558972    0.34128519
     atom   39 type  3   force =    -0.00430096   -0.05524976    0.05240039
     atom   40 type  3   force =    -0.01372206    0.52015842   -0.57592548
     atom   41 type  4   force =    -0.03317675    0.02357648   -0.02155642
     atom   42 type  4   force =     0.03133110    0.02275709   -0.02087568
     atom   43 type  4   force =    -0.03028622   -0.02573366    0.01608709
     atom   44 type  4   force =     0.03003169   -0.02617012    0.01534072
     atom   45 type  4   force =     0.03205508    0.01506288   -0.02168809
     atom   46 type  4   force =    -0.02874231    0.01479581   -0.02264631
     atom   47 type  4   force =     0.00039614    0.02994398    0.00342969
     atom   48 type  4   force =    -0.00005914    0.02868549   -0.00013664

     Total force =     1.283743     Total SCF correction =     0.005468
 !ASE

     Writing output data file calc.save
     Check: negative starting charge=   -0.009868
     NEW-OLD atomic charge density approx. for the potential
     Check: negative starting charge=   -0.009948

     negative rho (up, down):  4.647E-03 0.000E+00

     total cpu time spent up to now is     9801.3 secs

     per-process dynamical memory:   403.9 Mb

     Self-consistent Calculation

     iteration #  1     ecut=    40.42 Ry     beta=0.20
     Davidson diagonalization with overlap
     ethr =  2.34E-10,  avg # of iterations = 14.0

     negative rho (up, down):  4.629E-03 0.000E+00

     total cpu time spent up to now is    10200.2 secs

     total energy              =  -13083.67907130 Ry
     Harris-Foulkes estimate   =  -13083.68531184 Ry
     estimated scf accuracy    <       0.05713093 Ry

     iteration #  2     ecut=    40.42 Ry     beta=0.20
     Davidson diagonalization with overlap
     ethr =  8.74E-06,  avg # of iterations =  1.5

     negative rho (up, down):  1.033E-02 0.000E+00

     total cpu time spent up to now is    10327.5 secs

     total energy              =  -13083.66070496 Ry
     Harris-Foulkes estimate   =  -13083.67928948 Ry
     estimated scf accuracy    <       0.04098286 Ry

     iteration #  3     ecut=    40.42 Ry     beta=0.20
     Davidson diagonalization with overlap
     ethr =  6.27E-06,  avg # of iterations =  3.0

     negative rho (up, down):  9.371E-03 0.000E+00

     total cpu time spent up to now is    10461.1 secs

     total energy              =  -13083.66531584 Ry
     Harris-Foulkes estimate   =  -13083.66589151 Ry
     estimated scf accuracy    <       0.00485554 Ry

     iteration #  4     ecut=    40.42 Ry     beta=0.20
     Davidson diagonalization with overlap
     ethr =  7.42E-07,  avg # of iterations =  4.0

     negative rho (up, down):  9.736E-03 0.000E+00

     total cpu time spent up to now is    10589.4 secs

     total energy              =  -13083.66511991 Ry
     Harris-Foulkes estimate   =  -13083.66553829 Ry
     estimated scf accuracy    <       0.00296307 Ry

     iteration #  5     ecut=    40.42 Ry     beta=0.20
     Davidson diagonalization with overlap
     ethr =  4.53E-07,  avg # of iterations =  3.8

     negative rho (up, down):  9.454E-03 0.000E+00

     total cpu time spent up to now is    10719.0 secs

     total energy              =  -13083.66495227 Ry
     Harris-Foulkes estimate   =  -13083.66522418 Ry
     estimated scf accuracy    <       0.00205303 Ry

     iteration #  6     ecut=    40.42 Ry     beta=0.20
     Davidson diagonalization with overlap
     ethr =  3.14E-07,  avg # of iterations =  3.0

     negative rho (up, down):  9.280E-03 0.000E+00

     total cpu time spent up to now is    10846.5 secs

[...]
    -2.9474  -2.9411  -2.9253  -2.8629  -2.8624  -2.8570  -2.8568  -2.8330
    -2.8307  -2.8293  -2.8004  -2.7996  -2.7694  -2.7686  -2.7497  -2.7494
    -2.7458  -2.7453  -2.6821  -2.6615  -2.6614  -2.6386  -2.6318  -2.3454
    -2.0774  -2.0630  -1.9324  -1.9314  -1.7610  -1.5092  -1.4951  -1.2293
    -0.9718  -0.9716  -0.9215  -0.9180  -0.9144   0.1511   0.1630   0.3301
     0.3317

          k = 0.0489-0.0282 0.0000 ( 78550 PWs)   bands (ev):

  -113.5523-113.5504-113.5489-113.5484-113.5461-113.5454-113.5452-113.5443
  -113.5439-113.5436-113.5432-113.5427-113.5423-113.5418-113.5415-113.5410
  -113.5409-113.5400-113.5399-113.5396-113.5393-113.5392-113.5388-113.5388
  -113.5387-113.5384-113.5380-113.5376-113.5374-113.5372-113.5363-113.5334
   -71.0140 -71.0133 -71.0122 -71.0118 -71.0081 -71.0067 -71.0065 -71.0060
   -71.0052 -71.0048 -71.0047 -71.0045 -71.0004 -70.9992 -70.9977 -70.9975
   -70.9936 -70.9934 -70.9929 -70.9927 -70.9887 -70.9886 -70.9882 -70.9880
   -70.9831 -70.9830 -70.9729 -70.9728 -70.9669 -70.9666 -70.9662 -70.9652
   -70.9645 -70.9640 -70.9625 -70.9623 -70.9568 -70.9565 -70.9564 -70.9561
   -70.9560 -70.9545 -70.9542 -70.9537 -70.9526 -70.9522 -70.9488 -70.9476
   -70.9469 -70.9466 -70.9465 -70.9462 -70.9447 -70.9443 -70.9440 -70.9426
   -70.9412 -70.9400 -70.9397 -70.9382 -70.9366 -70.9365 -70.9307 -70.9293
   -70.9082 -70.9064 -70.9011 -70.9006 -70.8918 -70.8912 -70.8904 -70.8901
   -70.8883 -70.8865 -70.8833 -70.8815 -70.8809 -70.8800 -70.8752 -70.8746
   -70.8681 -70.8678 -70.8653 -70.8645 -70.8631 -70.8627 -70.8616 -70.8608
   -70.8602 -70.8597 -70.8592 -70.8584 -70.8572 -70.8564 -70.8562 -70.8544
   -24.5450 -22.8766 -22.2640 -16.8914 -15.5003 -13.9349 -11.6462  -9.9410
    -9.1245  -8.9884  -8.7898  -8.7827  -8.6450  -7.9696  -7.8697  -7.8636
    -7.8430  -7.5980  -6.9805  -6.5908  -6.4099  -6.4095  -6.4092  -6.4059
    -6.1810  -6.1754  -6.0887  -6.0839  -6.0710  -6.0036  -5.7495  -5.5430
    -5.5426  -5.5422  -5.5420  -5.4718  -5.4691  -5.3989  -5.2941  -5.2931
    -5.2308  -5.2306  -5.2304  -5.2300  -5.0681  -5.0679  -4.9715  -4.9713
    -4.9710  -4.9704  -4.9687  -4.9685  -4.9674  -4.9671  -4.9416  -4.9400
    -4.9104  -4.9099  -4.7760  -4.7757  -4.7288  -4.7240  -4.7238  -4.7233
    -4.6908  -4.3814  -4.3812  -4.3242  -4.3228  -4.1886  -4.1878  -4.1868
    -4.1865  -4.1862  -4.1859  -4.1857  -4.1855  -4.1839  -4.1818  -4.1731
    -4.1727  -4.1619  -4.1616  -4.1376  -4.1370  -4.1361  -4.1348  -4.1260
    -4.1256  -4.0880  -4.0879  -4.0619  -4.0615  -4.0197  -4.0193  -3.9521
    -3.9517  -3.9513  -3.9508  -3.8807  -3.8799  -3.8246  -3.8241  -3.8235
    -3.8224  -3.8219  -3.8209  -3.8175  -3.8166  -3.8159  -3.8155  -3.7603
    -3.7591  -3.6336  -3.6319  -3.6206  -3.6204  -3.6198  -3.6198  -3.6053
    -3.5981  -3.5847  -3.5833  -3.5587  -3.5575  -3.5568  -3.5564  -3.5507
    -3.5489  -3.4636  -3.4386  -3.4369  -3.4085  -3.4080  -3.4075  -3.4048
    -3.3850  -3.3733  -3.3148  -3.3121  -3.2391  -3.2377  -3.2331  -3.2323
    -3.2316  -3.2281  -3.2169  -3.2072  -3.1877  -3.1875  -3.1328  -3.1313
    -3.0440  -3.0437  -3.0436  -3.0434  -3.0145  -3.0141  -3.0128  -3.0126
    -2.9696  -2.9680  -2.9678  -2.9674  -2.9672  -2.9667  -2.9503  -2.9493
    -2.9041  -2.9030  -2.8764  -2.8755  -2.8607  -2.8604  -2.8596  -2.8587
    -2.8312  -2.8297  -2.8222  -2.8213  -2.7898  -2.7887  -2.7792  -2.7782
    -2.7365  -2.7349  -2.7344  -2.7335  -2.6996  -2.6933  -2.6260  -2.5934
    -2.5933  -2.5929  -2.5926  -2.1285  -2.1140  -0.9787  -0.9778  -0.9761
    -0.9755  -0.8403  -0.8362  -0.8317  -0.8186  -0.3281  -0.3226  -0.2918
    -0.2579

          k =-0.0489-0.0282 0.0000 ( 78550 PWs)   bands (ev):

  -113.5522-113.5507-113.5486-113.5483-113.5462-113.5455-113.5454-113.5444
  -113.5438-113.5436-113.5432-113.5426-113.5421-113.5418-113.5415-113.5411
  -113.5407-113.5401-113.5400-113.5397-113.5394-113.5391-113.5390-113.5388
  -113.5386-113.5381-113.5380-113.5377-113.5373-113.5372-113.5363-113.5334
   -71.0137 -71.0132 -71.0124 -71.0120 -71.0080 -71.0069 -71.0063 -71.0059
   -71.0054 -71.0048 -71.0047 -71.0046 -71.0003 -70.9995 -70.9975 -70.9974
   -70.9935 -70.9934 -70.9929 -70.9927 -70.9886 -70.9886 -70.9882 -70.9880
   -70.9831 -70.9830 -70.9729 -70.9728 -70.9669 -70.9666 -70.9659 -70.9652
   -70.9647 -70.9642 -70.9625 -70.9624 -70.9569 -70.9566 -70.9565 -70.9562
   -70.9558 -70.9546 -70.9540 -70.9536 -70.9527 -70.9525 -70.9487 -70.9478
   -70.9468 -70.9466 -70.9465 -70.9462 -70.9447 -70.9443 -70.9438 -70.9427
   -70.9410 -70.9402 -70.9395 -70.9384 -70.9366 -70.9364 -70.9305 -70.9295
   -70.9081 -70.9067 -70.9009 -70.9005 -70.8918 -70.8913 -70.8905 -70.8902
   -70.8880 -70.8866 -70.8829 -70.8815 -70.8810 -70.8802 -70.8751 -70.8746
   -70.8681 -70.8679 -70.8651 -70.8645 -70.8632 -70.8630 -70.8615 -70.8610
   -70.8601 -70.8597 -70.8589 -70.8583 -70.8573 -70.8567 -70.8560 -70.8544
   -24.5450 -22.8766 -22.2640 -16.8914 -15.5003 -13.9349 -11.6462  -9.9409
    -9.1245  -8.9885  -8.7898  -8.7826  -8.6450  -7.9695  -7.8696  -7.8637
    -7.8433  -7.5979  -6.9806  -6.5905  -6.4099  -6.4095  -6.4092  -6.4059
    -6.1811  -6.1754  -6.0884  -6.0839  -6.0715  -6.0037  -5.7495  -5.5430
    -5.5425  -5.5422  -5.5421  -5.4718  -5.4691  -5.3989  -5.2941  -5.2931
    -5.2307  -5.2306  -5.2304  -5.2301  -5.0680  -5.0679  -4.9715  -4.9713
    -4.9710  -4.9704  -4.9685  -4.9683  -4.9675  -4.9673  -4.9414  -4.9403
    -4.9104  -4.9100  -4.7759  -4.7758  -4.7281  -4.7240  -4.7237  -4.7233
    -4.6914  -4.3815  -4.3812  -4.3242  -4.3229  -4.1884  -4.1877  -4.1870
    -4.1866  -4.1861  -4.1860  -4.1857  -4.1855  -4.1837  -4.1820  -4.1731
    -4.1727  -4.1619  -4.1616  -4.1376  -4.1370  -4.1362  -4.1348  -4.1260
    -4.1256  -4.0880  -4.0879  -4.0618  -4.0615  -4.0197  -4.0194  -3.9521
    -3.9517  -3.9514  -3.9507  -3.8807  -3.8800  -3.8245  -3.8242  -3.8235
    -3.8225  -3.8218  -3.8211  -3.8173  -3.8166  -3.8160  -3.8156  -3.7601
    -3.7592  -3.6334  -3.6321  -3.6205  -3.6204  -3.6198  -3.6198  -3.6057
    -3.5979  -3.5846  -3.5833  -3.5584  -3.5574  -3.5570  -3.5565  -3.5506
    -3.5489  -3.4634  -3.4387  -3.4369  -3.4084  -3.4080  -3.4076  -3.4051
    -3.3850  -3.3738  -3.3149  -3.3116  -3.2389  -3.2379  -3.2330  -3.2324
    -3.2316  -3.2282  -3.2166  -3.2072  -3.1877  -3.1876  -3.1328  -3.1313
    -3.0439  -3.0437  -3.0436  -3.0434  -3.0143  -3.0139  -3.0129  -3.0128
    -2.9694  -2.9679  -2.9678  -2.9675  -2.9673  -2.9668  -2.9503  -2.9494
    -2.9041  -2.9030  -2.8764  -2.8755  -2.8606  -2.8604  -2.8597  -2.8587
    -2.8310  -2.8299  -2.8222  -2.8214  -2.7897  -2.7887  -2.7791  -2.7783
    -2.7362  -2.7349  -2.7345  -2.7337  -2.6991  -2.6936  -2.6261  -2.5934
    -2.5932  -2.5929  -2.5926  -2.1284  -2.1141  -0.9784  -0.9777  -0.9763
    -0.9757  -0.8401  -0.8362  -0.8318  -0.8188  -0.3272  -0.3223  -0.2900
    -0.2606

          k =-0.0245 0.0424 0.0000 ( 78586 PWs)   bands (ev):

  -113.5522-113.5504-113.5494-113.5472-113.5467-113.5455-113.5452-113.5444
  -113.5443-113.5434-113.5430-113.5425-113.5423-113.5417-113.5414-113.5411
  -113.5408-113.5404-113.5400-113.5395-113.5393-113.5392-113.5389-113.5388
  -113.5386-113.5383-113.5379-113.5377-113.5373-113.5372-113.5363-113.5334
   -71.0156 -71.0121 -71.0117 -71.0105 -71.0100 -71.0081 -71.0055 -71.0047
   -71.0045 -71.0041 -71.0033 -71.0028 -71.0008 -71.0002 -70.9993 -70.9990
   -70.9982 -70.9944 -70.9937 -70.9930 -70.9886 -70.9883 -70.9875 -70.9800
   -70.9796 -70.9789 -70.9759 -70.9759 -70.9738 -70.9734 -70.9663 -70.9629
   -70.9626 -70.9620 -70.9610 -70.9590 -70.9585 -70.9569 -70.9559 -70.9558
   -70.9553 -70.9547 -70.9542 -70.9512 -70.9507 -70.9506 -70.9500 -70.9499
   -70.9492 -70.9483 -70.9466 -70.9463 -70.9448 -70.9439 -70.9434 -70.9418
   -70.9416 -70.9410 -70.9403 -70.9391 -70.9362 -70.9325 -70.9323 -70.9295
   -70.9085 -70.9052 -70.9039 -70.8963 -70.8958 -70.8914 -70.8904 -70.8889
   -70.8864 -70.8856 -70.8847 -70.8837 -70.8799 -70.8785 -70.8772 -70.8732
   -70.8692 -70.8666 -70.8656 -70.8648 -70.8630 -70.8622 -70.8619 -70.8610
   -70.8604 -70.8596 -70.8589 -70.8583 -70.8572 -70.8567 -70.8561 -70.8544
   -24.5450 -22.8767 -22.2640 -16.8914 -15.5003 -13.9350 -11.6462  -9.9410
    -9.1246  -8.9885  -8.9053  -8.6524  -8.4282  -8.4251  -7.9690  -7.8498
    -7.5987  -7.1474  -7.1470  -6.9807  -6.5893  -6.4522  -6.2828  -6.2819
    -6.2755  -6.0851  -6.0046  -5.8905  -5.8837  -5.8505  -5.8501  -5.8303
    -5.8297  -5.7493  -5.3992  -5.3782  -5.3596  -5.3036  -5.3034  -5.2585
    -5.2581  -5.1834  -5.1832  -5.0984  -5.0982  -5.0904  -5.0895  -5.0633
    -5.0625  -5.0085  -5.0016  -4.9852  -4.9851  -4.8882  -4.8880  -4.8721
    -4.8711  -4.8460  -4.8456  -4.7816  -4.7575  -4.7321  -4.6967  -4.6546
    -4.5453  -4.5446  -4.4563  -4.4039  -4.4030  -4.2506  -4.2502  -4.2274
    -4.2053  -4.2045  -4.2032  -4.2029  -4.1988  -4.1887  -4.1882  -4.1575
    -4.1558  -4.1545  -4.1448  -4.1442  -4.1355  -4.1348  -4.1230  -4.0793
    -4.0788  -4.0608  -4.0450  -4.0336  -3.9982  -3.9625  -3.9619  -3.9547
    -3.9493  -3.9238  -3.9229  -3.8552  -3.8517  -3.8510  -3.8278  -3.7967
    -3.7959  -3.7939  -3.7925  -3.7922  -3.7372  -3.7353  -3.6973  -3.6971
    -3.6939  -3.6923  -3.6906  -3.6901  -3.6661  -3.6653  -3.6568  -3.6320
    -3.6301  -3.6276  -3.6267  -3.5978  -3.5971  -3.5749  -3.5733  -3.5562
    -3.5322  -3.5301  -3.4984  -3.4972  -3.4663  -3.4519  -3.3866  -3.3754
    -3.3490  -3.2880  -3.2851  -3.2761  -3.2739  -3.2696  -3.2218  -3.2065
    -3.1969  -3.1968  -3.1855  -3.1838  -3.1753  -3.1734  -3.1359  -3.1345
    -3.1077  -3.1069  -3.0942  -3.0824  -3.0173  -3.0140  -3.0126  -3.0005
    -2.9998  -2.9685  -2.9682  -2.9680  -2.9677  -2.9675  -2.9506  -2.9494
    -2.9134  -2.9134  -2.9100  -2.9096  -2.8868  -2.8829  -2.8699  -2.8665
    -2.8658  -2.8270  -2.8261  -2.8174  -2.8099  -2.8090  -2.7947  -2.7628
    -2.7624  -2.7469  -2.7255  -2.7253  -2.6765  -2.6756  -2.6323  -2.5642
    -2.4723  -2.4593  -2.0324  -2.0322  -1.9817  -1.9811  -1.6085  -1.6012
    -0.8718  -0.6837  -0.6741  -0.4734   0.0079   0.2005   0.2054   0.2430
     0.2689

          k = 0.0489-0.0000 0.0000 ( 78586 PWs)   bands (ev):

  -113.5522-113.5501-113.5497-113.5474-113.5463-113.5459-113.5452-113.5443
  -113.5437-113.5436-113.5431-113.5428-113.5423-113.5415-113.5414-113.5411
  -113.5407-113.5404-113.5399-113.5395-113.5394-113.5392-113.5390-113.5387
  -113.5385-113.5382-113.5379-113.5377-113.5373-113.5372-113.5363-113.5334
   -71.0156 -71.0123 -71.0117 -71.0103 -71.0100 -71.0081 -71.0052 -71.0050
   -71.0045 -71.0041 -71.0030 -71.0027 -71.0009 -71.0005 -70.9992 -70.9987
   -70.9986 -70.9945 -70.9937 -70.9930 -70.9886 -70.9882 -70.9875 -70.9801
   -70.9793 -70.9791 -70.9761 -70.9757 -70.9737 -70.9735 -70.9664 -70.9628
   -70.9626 -70.9616 -70.9615 -70.9589 -70.9585 -70.9572 -70.9559 -70.9557
   -70.9552 -70.9549 -70.9541 -70.9515 -70.9506 -70.9505 -70.9500 -70.9497
   -70.9493 -70.9481 -70.9468 -70.9463 -70.9448 -70.9437 -70.9435 -70.9420
   -70.9415 -70.9410 -70.9402 -70.9392 -70.9363 -70.9325 -70.9324 -70.9294
   -70.9085 -70.9047 -70.9044 -70.8967 -70.8954 -70.8915 -70.8897 -70.8893
   -70.8866 -70.8857 -70.8850 -70.8833 -70.8801 -70.8782 -70.8773 -70.8732
   -70.8692 -70.8666 -70.8657 -70.8647 -70.8632 -70.8619 -70.8617 -70.8611
   -70.8606 -70.8596 -70.8591 -70.8582 -70.8573 -70.8566 -70.8561 -70.8544
   -24.5450 -22.8766 -22.2640 -16.8914 -15.5003 -13.9349 -11.6462  -9.9409
    -9.1244  -8.9885  -8.9054  -8.6524  -8.4281  -8.4251  -7.9693  -7.8499
    -7.5989  -7.1478  -7.1463  -6.9805  -6.5894  -6.4519  -6.2826  -6.2820
    -6.2749  -6.0855  -6.0053  -5.8903  -5.8838  -5.8504  -5.8498  -5.8306
    -5.8295  -5.7491  -5.3992  -5.3782  -5.3598  -5.3036  -5.3033  -5.2583
    -5.2583  -5.1834  -5.1833  -5.0984  -5.0982  -5.0900  -5.0898  -5.0634
    -5.0621  -5.0085  -5.0015  -4.9853  -4.9850  -4.8882  -4.8880  -4.8716
    -4.8713  -4.8465  -4.8457  -4.7817  -4.7576  -4.7321  -4.6970  -4.6540
    -4.5457  -4.5447  -4.4555  -4.4041  -4.4033  -4.2505  -4.2503  -4.2271
    -4.2054  -4.2046  -4.2034  -4.2025  -4.1989  -4.1889  -4.1885  -4.1575
    -4.1554  -4.1551  -4.1446  -4.1441  -4.1352  -4.1351  -4.1230  -4.0791
    -4.0790  -4.0608  -4.0450  -4.0336  -3.9981  -3.9623  -3.9622  -3.9546
    -3.9493  -3.9238  -3.9233  -3.8552  -3.8516  -3.8513  -3.8278  -3.7962
    -3.7958  -3.7934  -3.7933  -3.7922  -3.7370  -3.7356  -3.6977  -3.6968
    -3.6932  -3.6926  -3.6905  -3.6902  -3.6661  -3.6654  -3.6567  -3.6318
    -3.6305  -3.6272  -3.6270  -3.5985  -3.5967  -3.5750  -3.5739  -3.5546
    -3.5309  -3.5301  -3.4977  -3.4968  -3.4701  -3.4519  -3.3870  -3.3746
    -3.3498  -3.2888  -3.2834  -3.2767  -3.2733  -3.2685  -3.2218  -3.2071
    -3.1970  -3.1967  -3.1852  -3.1841  -3.1757  -3.1733  -3.1358  -3.1345
    -3.1074  -3.1072  -3.0945  -3.0824  -3.0173  -3.0133  -3.0132  -3.0002
    -3.0001  -2.9683  -2.9683  -2.9682  -2.9680  -2.9670  -2.9501  -2.9498
    -2.9137  -2.9131  -2.9100  -2.9097  -2.8868  -2.8829  -2.8699  -2.8666
    -2.8658  -2.8266  -2.8264  -2.8175  -2.8096  -2.8094  -2.7947  -2.7628
    -2.7625  -2.7471  -2.7257  -2.7251  -2.6761  -2.6760  -2.6323  -2.5642
    -2.4704  -2.4608  -2.0329  -2.0317  -1.9817  -1.9811  -1.6128  -1.5963
    -0.8723  -0.6820  -0.6762  -0.4745   0.0079   0.2006   0.2029   0.2469
     0.2684

     the Fermi energy is    -1.2974 ev

!    total energy              =  -13083.74579793 Ry
     Harris-Foulkes estimate   =  -13083.74579791 Ry
     estimated scf accuracy    <       0.00000031 Ry

     The total energy is the sum of the following terms:

     one-electron contribution = -112565.33796840 Ry
     hartree contribution      =   56279.63183371 Ry
     xc contribution           =   -1285.99752474 Ry
     ewald contribution        =   44487.97601947 Ry
     smearing contrib. (-TS)   =      -0.01815797 Ry

     convergence has been achieved in   9 iterations

     Forces acting on atoms (Ry/au):


     negative rho (up, down):  4.123E-03 0.000E+00
     atom    1 type  1   force =     0.00003865   -0.00002245   -0.00053559
     atom    2 type  1   force =     0.00013261    0.00006552    0.00091364
     atom    3 type  1   force =     0.00007479   -0.00004110   -0.00094343
     atom    4 type  1   force =     0.00011966    0.00008376    0.00084524
     atom    5 type  1   force =     0.00004101    0.00004956   -0.00102151
     atom    6 type  1   force =     0.00010576    0.00009851    0.00093293
     atom    7 type  1   force =    -0.00007229    0.00005835   -0.00082126
     atom    8 type  1   force =     0.00017616    0.00005073    0.00102208
     atom    9 type  1   force =    -0.00004726    0.00007366   -0.00087467
     atom   10 type  1   force =    -0.00021651   -0.00074239    0.00014353
     atom   11 type  1   force =     0.00006965   -0.00000583   -0.00086218
     atom   12 type  1   force =    -0.00054563    0.00014566    0.00058153
     atom   13 type  1   force =     0.00013335    0.00003825   -0.00084445
     atom   14 type  1   force =     0.00004337    0.00004662    0.00085305
     atom   15 type  1   force =     0.00007532    0.00002156   -0.00086435
     atom   16 type  1   force =     0.00002521    0.00012919    0.00101932
     atom   17 type  1   force =    -0.00002872   -0.00003973   -0.00109137
     atom   18 type  1   force =     0.00012105   -0.00076193    0.00022907
     atom   19 type  1   force =    -0.00014361   -0.00002337   -0.00077562
     atom   20 type  1   force =    -0.00006230    0.00004242    0.00228787
     atom   21 type  1   force =    -0.00004754    0.00004264   -0.00090602
     atom   22 type  1   force =    -0.00038533    0.00032497    0.00036208
     atom   23 type  1   force =     0.00002434   -0.00008972   -0.00085380
     atom   24 type  1   force =    -0.00018965   -0.00009640    0.00097319
     atom   25 type  1   force =     0.00002863   -0.00006768   -0.00093792
     atom   26 type  1   force =    -0.00005280    0.00000606    0.00097289
     atom   27 type  1   force =    -0.00000316   -0.00007960   -0.00085294
     atom   28 type  1   force =     0.00051091    0.00009587    0.00068204
     atom   29 type  1   force =    -0.00013160    0.00009524   -0.00074861
     atom   30 type  1   force =     0.00023818    0.00035190    0.00046765
     atom   31 type  1   force =    -0.00003150   -0.00004960   -0.00080460
     atom   32 type  1   force =    -0.00001553   -0.00007278    0.00152154
     atom   33 type  2   force =     0.00016339   -0.00073792   -0.00075290
     atom   34 type  2   force =     0.00009472   -0.00089082    0.00057845
     atom   35 type  2   force =    -0.00013588    0.00090561   -0.00046218
     atom   36 type  3   force =     0.00049548   -0.00050573    0.00094663
     atom   37 type  3   force =    -0.00012460    0.00008657   -0.00006171
     atom   38 type  3   force =    -0.00001232    0.00136940    0.00022600
     atom   39 type  3   force =     0.00041845   -0.00031677   -0.00093555
     atom   40 type  3   force =     0.00019178   -0.00027624    0.00005561
     atom   41 type  4   force =     0.00000347    0.00005206    0.00004588
     atom   42 type  4   force =    -0.00044172   -0.00008771    0.00021935
     atom   43 type  4   force =     0.00004222    0.00044216   -0.00007541
     atom   44 type  4   force =    -0.00023018    0.00047573    0.00007049
     atom   45 type  4   force =    -0.00036447   -0.00060420    0.00020771
     atom   46 type  4   force =    -0.00008300   -0.00046138    0.00004998
     atom   47 type  4   force =     0.00000083   -0.00013557   -0.00035952
     atom   48 type  4   force =    -0.00000340    0.00095691    0.00017785

     Total force =     0.006403     Total SCF correction =     0.001891
     SCF correction compared to forces is large: reduce conv_thr to get better values
 !ASE

     Writing output data file calc.save
 
     init_run     :    154.14s CPU    155.48s WALL (       1 calls)
     electrons    : 192024.23s CPU 194062.74s WALL (      30 calls)
     update_pot   :    188.76s CPU    220.21s WALL (      29 calls)
     forces       :   2295.92s CPU   2296.13s WALL (      30 calls)

     Called by init_run:
     wfcinit      :    120.85s CPU    121.91s WALL (       1 calls)
     potinit      :      2.84s CPU      2.92s WALL (       1 calls)

     Called by electrons:
     c_bands      : 137790.93s CPU 139355.10s WALL (     654 calls)
     sum_band     :  30914.87s CPU  30952.58s WALL (     654 calls)
     v_of_rho     :    344.31s CPU    375.64s WALL (     684 calls)
     newd         :  13252.12s CPU  13267.62s WALL (     684 calls)
     mix_rho      :  10273.21s CPU  10653.98s WALL (     654 calls)

     Called by c_bands:
     init_us_2    :    665.09s CPU    666.70s WALL (   13390 calls)
     cegterg      : 134770.42s CPU 136242.69s WALL (    6540 calls)

     Called by *egterg:
     h_psi        :  84387.35s CPU  84438.90s WALL (   24597 calls)
     s_psi        :   9210.25s CPU   9206.27s WALL (   24597 calls)
     g_psi        :    167.81s CPU    167.82s WALL (   18047 calls)
     cdiaghg      :  12277.52s CPU  12271.10s WALL (   24297 calls)

     Called by h_psi:
     add_vuspsi   :   9200.39s CPU   9195.62s WALL (   24597 calls)

     General routines
     calbec       :  13185.05s CPU  13196.97s WALL (   31437 calls)
     fft          :   1182.67s CPU   1222.89s WALL (   11183 calls)
     ffts         :   4633.85s CPU   5010.75s WALL (  813060 calls)
     fftw         :  61269.36s CPU  61356.43s WALL (12097268 calls)
     interpolate  :     55.78s CPU     60.69s WALL (    1338 calls)
     davcio       :      0.01s CPU      4.67s WALL (      10 calls)
 
     Parallel routines
     fft_scatter  :  31329.83s CPU  31696.04s WALL (12921511 calls)
 
     PWSCF        :     2d    6h13m CPU        2d    6h49m WALL

 
   This run was terminated on:   0:56:48   9Apr2019            

=------------------------------------------------------------------------------=
   JOB DONE.
=------------------------------------------------------------------------------=
