  python dir          : /gpfs/pace1/project/chbe-medford/medford-share/gits/frozen/ben_espresso_8_24_2017/espresso
  espresso dir        : /nv/hp22/amedford6/medford-shared/builds/espresso/5.1.r11289-pybeef/intel-16.0+mvapich2-2.2+mkl-11.3/espresso-5.1.r11289-pybeef/bin
  pseudo dir          : /gpfs/pace1/project/chbe-medford/medford-share/data/pseudos/SSSP_eff_PBE
  ase-espresso py git : GITVERSION



     Program PWSCF v.5.1rc2 starts on  6Apr2019 at 22:25:17 

     This program is part of the open-source Quantum ESPRESSO suite
     for quantum simulation of materials; please cite
         "P. Giannozzi et al., J. Phys.:Condens. Matter 21 395502 (2009);
          URL http://www.quantum-espresso.org", 
     in publications or presentations arising from this work. More details at
     http://www.quantum-espresso.org/quote

     Parallel version (MPI), running on    12 processors
     R & G space division:  proc/nbgrp/npool/nimage =      12
     Reading input from pw.inp
     Message from routine read_cards :
     DEPRECATED: no units specified in CELL_PARAMETERS card

     Current dimensions of program PWSCF are:
     Max number of different atomic species (ntypx) = 10
     Max number of k-points (npk) =  40000
     Max angular momentum in pseudopotentials (lmaxx) =  3

     IMPORTANT: XC functional enforced from input :
     Exchange-correlation      = PBE ( 1  4  3  4 0)
     Any further DFT definition will be discarded
     Please, verify this is what you really want

               file Rh.UPF: wavefunction(s)  4S 5S 4D renormalized

     Subspace diagonalization in iterative solution of the eigenvalue problem:
     a serial algorithm will be used

 
     Parallelization info
     --------------------
     sticks:   dense  smooth     PW     G-vecs:    dense   smooth      PW
     Min         783     384    101               168735    57688    7825
     Max         784     385    102               168748    57727    7834
     Sum        9403    4615   1213              2024909   692451   93943
 


     bravais-lattice index     =            0
     lattice parameter (alat)  =       1.8897  a.u.
     unit-cell volume          =   19935.2767 (a.u.)^3
     number of atoms/cell      =           56
     number of atomic types    =            4
     number of electrons       =       626.00
     number of Kohn-Sham states=          323
     kinetic-energy cutoff     =      40.4243  Ry
     charge density cutoff     =     330.7439  Ry
     convergence threshold     =      3.7E-07
     mixing beta               =       0.0750
     number of iterations used =            8  local-TF  mixing
     Exchange-correlation      = PBE ( 1  4  3  4 0)
     nstep                     =           50


     celldm(1)=   1.889726  celldm(2)=   0.000000  celldm(3)=   0.000000
     celldm(4)=   0.000000  celldm(5)=   0.000000  celldm(6)=   0.000000

     crystal axes: (cart. coord. in units of alat)
               a(1) = (  10.757640   0.000000   0.000000 )  
               a(2) = (  -5.378820   9.316389   0.000000 )  
               a(3) = (   0.000000   0.000000  29.475491 )  

     reciprocal axes: (cart. coord. in units 2 pi/alat)
               b(1) = (  0.092957  0.053669  0.000000 )  
               b(2) = (  0.000000  0.107338  0.000000 )  
               b(3) = (  0.000000  0.000000  0.033926 )  


     PseudoPot. # 1 for Rh read from file:
     /gpfs/pace1/project/chbe-medford/medford-share/data/pseudos/SSSP_eff_PBE/Rh.UPF
     MD5 check sum: ceb12254454c5aaeede670f925ab9aba
     Pseudo is Projector augmented-wave + core cor, Zval = 17.0
     Generated using "atomic" code by A. Dal Corso  v.5.1
     Shape of augmentation charge: PSQ
     Using radial grid of 1233 points,  6 beta functions with: 
                l(1) =   0
                l(2) =   0
                l(3) =   1
                l(4) =   1
                l(5) =   2
                l(6) =   2
     Q(r) pseudized with 0 coefficients 


     PseudoPot. # 2 for O  read from file:
     /gpfs/pace1/project/chbe-medford/medford-share/data/pseudos/SSSP_eff_PBE/O.UPF
     MD5 check sum: 734c27235a0248c51dbae37a1fbe46ec
     Pseudo is Ultrasoft + core correction, Zval =  6.0
     Generated by new atomic code, or converted to UPF format
     Using radial grid of  737 points,  5 beta functions with: 
                l(1) =   0
                l(2) =   0
                l(3) =   1
                l(4) =   1
                l(5) =   2
     Q(r) pseudized with  8 coefficients,  rinner =    0.900   0.900   0.900
                                                       0.900   0.900

     PseudoPot. # 3 for C  read from file:
     /gpfs/pace1/project/chbe-medford/medford-share/data/pseudos/SSSP_eff_PBE/C.UPF
     MD5 check sum: d1aef80898a10debaa0f26306b886e00
     Pseudo is Ultrasoft + core correction, Zval =  4.0
     Generated by new atomic code, or converted to UPF format
     Using radial grid of  721 points,  4 beta functions with: 
                l(1) =   0
                l(2) =   0
                l(3) =   1
                l(4) =   1
     Q(r) pseudized with  8 coefficients,  rinner =    1.100   1.100   1.100


     PseudoPot. # 4 for  H read from file:
     /gpfs/pace1/project/chbe-medford/medford-share/data/pseudos/SSSP_eff_PBE/H.UPF
     MD5 check sum: 36633979392af7100e6f6632747262d3
     Pseudo is Ultrasoft, Zval =  1.0
     Generated using "atomic" code by A. Dal Corso  v.5.0.99 svn rev. 10869
     Using radial grid of  929 points,  2 beta functions with: 
                l(1) =   0
                l(2) =   0
     Q(r) pseudized with 0 coefficients 


     atomic species   valence    mass     pseudopotential
        Rh1           17.00   102.90550     Rh( 1.00)
        O1             6.00    15.99940     O ( 1.00)
        C1             4.00    12.01100     C ( 1.00)
        H1             1.00     1.00794      H( 1.00)

     No symmetry found



   Cartesian axes

     site n.     atom                  positions (alat units)
         1           Rh1 tau(   1) = (   0.0000000   0.0000000  10.0000000  )
         2           Rh1 tau(   2) = (   1.3447050   0.7763658  12.1958940  )
         3           Rh1 tau(   3) = (  -1.3447050   2.3290973  10.0000000  )
         4           Rh1 tau(   4) = (   0.0000000   3.1054631  12.1958940  )
         5           Rh1 tau(   5) = (  -2.6894099   4.6581946  10.0000000  )
         6           Rh1 tau(   6) = (  -1.3447050   5.4345604  12.1958940  )
         7           Rh1 tau(   7) = (  -4.0341149   6.9872920  10.0000000  )
         8           Rh1 tau(   8) = (  -2.6894099   7.7636577  12.1958940  )
         9           Rh1 tau(   9) = (   2.6894099   0.0000000  10.0000000  )
        10           Rh1 tau(  10) = (   4.0341149   0.7763658  12.1958940  )
        11           Rh1 tau(  11) = (   1.3447050   2.3290973  10.0000000  )
        12           Rh1 tau(  12) = (   2.6894099   3.1054631  12.1958940  )
        13           Rh1 tau(  13) = (   0.0000000   4.6581946  10.0000000  )
        14           Rh1 tau(  14) = (   1.3447050   5.4345604  12.1958940  )
        15           Rh1 tau(  15) = (  -1.3447050   6.9872920  10.0000000  )
        16           Rh1 tau(  16) = (   0.0000000   7.7636577  12.1958940  )
        17           Rh1 tau(  17) = (   5.3788199   0.0000000  10.0000000  )
        18           Rh1 tau(  18) = (   6.7235248   0.7763658  12.1958940  )
        19           Rh1 tau(  19) = (   4.0341149   2.3290973  10.0000000  )
        20           Rh1 tau(  20) = (   5.3788199   3.1054631  12.1958940  )
        21           Rh1 tau(  21) = (   2.6894099   4.6581946  10.0000000  )
        22           Rh1 tau(  22) = (   4.0341149   5.4345604  12.1958940  )
        23           Rh1 tau(  23) = (   1.3447050   6.9872920  10.0000000  )
        24           Rh1 tau(  24) = (   2.6894099   7.7636577  12.1958940  )
        25           Rh1 tau(  25) = (   8.0682298   0.0000000  10.0000000  )
        26           Rh1 tau(  26) = (   9.4129348   0.7763658  12.1958940  )
        27           Rh1 tau(  27) = (   6.7235248   2.3290973  10.0000000  )
        28           Rh1 tau(  28) = (   8.0682298   3.1054631  12.1958940  )
        29           Rh1 tau(  29) = (   5.3788199   4.6581946  10.0000000  )
        30           Rh1 tau(  30) = (   6.7235248   5.4345604  12.1958940  )
        31           Rh1 tau(  31) = (   4.0341149   6.9872920  10.0000000  )
        32           Rh1 tau(  32) = (   5.3788199   7.7636577  12.1958940  )
        33           O1  tau(  33) = (   4.6591000   2.5572590  19.0804609  )
        34           O1  tau(  34) = (   4.8152000   5.0567810  18.0659105  )
        35           O1  tau(  35) = (   2.5431000   0.9269676  18.8549093  )
        36           O1  tau(  36) = (   2.0508000   5.4749746  17.4741171  )
        37           O1  tau(  37) = (   3.1683000   1.4299736  15.4599088  )
        38           O1  tau(  38) = (   4.3040000   5.4350000  14.6958940  )
        39           O1  tau(  39) = (   4.3753000   0.2319686  16.9560385  )
        40           O1  tau(  40) = (   3.2997000   7.1579924  15.7863298  )
        41           C1  tau(  41) = (   3.5178000   3.0454892  18.3566643  )
        42           C1  tau(  42) = (   4.0288000   4.0940275  17.3496619  )
        43           C1  tau(  43) = (   2.7533000   1.8468977  17.7805525  )
        44           C1  tau(  44) = (   2.9614000   4.8736065  16.5675810  )
        45           C1  tau(  45) = (   3.5261000   1.0825050  16.7204792  )
        46           C1  tau(  46) = (   3.5264000   5.9615640  15.6751027  )
        47           H1  tau(  47) = (   2.8917000   3.5285570  19.1168966  )
        48           H1  tau(  48) = (   4.7281000   3.6195597  16.6521415  )
        49           H1  tau(  49) = (   1.7759000   2.1466897  17.3890502  )
        50           H1  tau(  50) = (   2.3820000   4.1892121  15.9378493  )
        51           H1  tau(  51) = (   5.1046000   3.3261628  19.4754907  )
        52           H1  tau(  52) = (   4.2252000   5.5099983  18.6925274  )
        53           H1  tau(  53) = (   1.9493000   0.2291725  18.5282522  )
        54           H1  tau(  54) = (   1.3133000   5.8372827  16.9540015  )
        55           H1  tau(  55) = (   3.6710000   0.9266879  14.7843694  )
        56           H1  tau(  56) = (   4.6643000   6.1278596  14.1022328  )

     number of k points=    10  Fermi-Dirac smearing, width (Ry)=  0.0073
                       cart. coord. in units 2pi/alat
        k(    1) = (   0.0000000   0.0000000   0.0000000), wk =   0.1250000
        k(    2) = (   0.0000000   0.0268344   0.0000000), wk =   0.2500000
        k(    3) = (   0.0000000  -0.0536689   0.0000000), wk =   0.1250000
        k(    4) = (   0.0232393   0.0402516   0.0000000), wk =   0.2500000
        k(    5) = (  -0.0232393   0.0134172   0.0000000), wk =   0.2500000
        k(    6) = (   0.0232393   0.0134172   0.0000000), wk =   0.2500000
        k(    7) = (   0.0464786  -0.0268344   0.0000000), wk =   0.1250000
        k(    8) = (  -0.0464786  -0.0268344   0.0000000), wk =   0.1250000
        k(    9) = (  -0.0232393   0.0402516   0.0000000), wk =   0.2500000
        k(   10) = (   0.0464786  -0.0000000   0.0000000), wk =   0.2500000

     Dense  grid:  2024909 G-vectors     FFT dimensions: ( 120, 120, 324)

     Smooth grid:   692451 G-vectors     FFT dimensions: (  90,  90, 225)

     Largest allocated arrays     est. size (Mb)     dimensions
        Kohn-Sham Wavefunctions        35.74 Mb     (    7251,  323)
        NL pseudopotentials            82.76 Mb     (    7251,  748)
        Each V/rho on FFT grid          5.93 Mb     (  388800)
        Each G-vector array             1.29 Mb     (  168746)
        G-vector shells                 0.42 Mb     (   55307)
     Largest temporary arrays     est. size (Mb)     dimensions
        Auxiliary wavefunctions       142.95 Mb     (    7251, 1292)
        Each subspace H/S matrix       25.47 Mb     (    1292, 1292)
        Each <psi_i|beta_j> matrix      3.69 Mb     (     748,  323)
        Arrays for rho mixing          47.46 Mb     (  388800,    8)

     Check: negative/imaginary core charge=   -0.000001    0.000000

     Initial potential from superposition of free atoms
     Check: negative starting charge=   -0.057953

     starting charge  625.98398, renormalised to  626.00000

     negative rho (up, down):  5.795E-02 0.000E+00
     Starting wfc are  386 randomized atomic wfcs
     Checking if some PAW data can be deallocated... 

     total cpu time spent up to now is      118.6 secs

     per-process dynamical memory:   631.2 Mb

     Self-consistent Calculation

     iteration #  1     ecut=    40.42 Ry     beta=0.07
     Davidson diagonalization with overlap
     ethr =  1.00E-02,  avg # of iterations =  2.6

     negative rho (up, down):  5.122E-02 0.000E+00

     total cpu time spent up to now is      417.4 secs

     total energy              =  -15383.05657616 Ry
     Harris-Foulkes estimate   =  -15383.28109092 Ry
     estimated scf accuracy    <       7.05370407 Ry

     iteration #  2     ecut=    40.42 Ry     beta=0.07
     Davidson diagonalization with overlap
     ethr =  1.13E-03,  avg # of iterations =  2.4

     negative rho (up, down):  2.580E-02 0.000E+00

     total cpu time spent up to now is      652.0 secs

     total energy              =  -15381.47646637 Ry
     Harris-Foulkes estimate   =  -15383.18128966 Ry
     estimated scf accuracy    <       6.09032408 Ry

     iteration #  3     ecut=    40.42 Ry     beta=0.07
     Davidson diagonalization with overlap
     ethr =  9.73E-04,  avg # of iterations =  4.2

     negative rho (up, down):  2.282E-02 0.000E+00

     total cpu time spent up to now is      915.7 secs

     total energy              =  -15381.90429672 Ry
     Harris-Foulkes estimate   =  -15382.02322452 Ry
     estimated scf accuracy    <       1.43971618 Ry

     iteration #  4     ecut=    40.42 Ry     beta=0.07
     Davidson diagonalization with overlap
     ethr =  2.30E-04,  avg # of iterations =  3.5

     negative rho (up, down):  2.259E-02 0.000E+00

     total cpu time spent up to now is     1158.2 secs

     total energy              =  -15381.97599436 Ry
     Harris-Foulkes estimate   =  -15381.95485684 Ry
     estimated scf accuracy    <       2.13227199 Ry

     iteration #  5     ecut=    40.42 Ry     beta=0.07
     Davidson diagonalization with overlap
     ethr =  2.30E-04,  avg # of iterations =  1.0

     negative rho (up, down):  1.586E-02 0.000E+00

     total cpu time spent up to now is     1386.2 secs

     total energy              =  -15381.73501052 Ry
     Harris-Foulkes estimate   =  -15381.99273504 Ry
     estimated scf accuracy    <       3.77042837 Ry

     iteration #  6     ecut=    40.42 Ry     beta=0.07
     Davidson diagonalization with overlap
     ethr =  2.30E-04,  avg # of iterations =  3.6

     negative rho (up, down):  1.542E-02 0.000E+00

     total cpu time spent up to now is     1632.5 secs

     total energy              =  -15381.82531886 Ry
     Harris-Foulkes estimate   =  -15381.83556126 Ry
     estimated scf accuracy    <       1.38934278 Ry

     iteration #  7     ecut=    40.42 Ry     beta=0.07
     Davidson diagonalization with overlap
     ethr =  2.22E-04,  avg # of iterations =  1.0

     negative rho (up, down):  1.218E-02 0.000E+00

     total cpu time spent up to now is     1858.6 secs

     total energy              =  -15381.70883578 Ry
     Harris-Foulkes estimate   =  -15381.83125302 Ry
     estimated scf accuracy    <       1.10031015 Ry

     iteration #  8     ecut=    40.42 Ry     beta=0.07
     Davidson diagonalization with overlap
     ethr =  1.76E-04,  avg # of iterations =  2.6

     negative rho (up, down):  1.019E-02 0.000E+00

     total cpu time spent up to now is     2101.4 secs

     total energy              =  -15381.74238775 Ry
     Harris-Foulkes estimate   =  -15381.76068011 Ry
     estimated scf accuracy    <       0.23854049 Ry

     iteration #  9     ecut=    40.42 Ry     beta=0.07
     Davidson diagonalization with overlap
     ethr =  3.81E-05,  avg # of iterations =  5.1

     negative rho (up, down):  6.574E-03 0.000E+00

     total cpu time spent up to now is     2354.7 secs

     total energy              =  -15381.71495443 Ry
     Harris-Foulkes estimate   =  -15381.74754855 Ry
     estimated scf accuracy    <       0.20329112 Ry

     iteration # 10     ecut=    40.42 Ry     beta=0.07
     Davidson diagonalization with overlap
     ethr =  3.25E-05,  avg # of iterations =  3.6

     negative rho (up, down):  6.736E-03 0.000E+00

     total cpu time spent up to now is     2603.7 secs

     total energy              =  -15381.72704813 Ry
     Harris-Foulkes estimate   =  -15381.72862907 Ry
     estimated scf accuracy    <       0.22820189 Ry

     iteration # 11     ecut=    40.42 Ry     beta=0.07
     Davidson diagonalization with overlap
     ethr =  3.25E-05,  avg # of iterations =  1.0

     negative rho (up, down):  4.901E-03 0.000E+00

     total cpu time spent up to now is     2829.8 secs

     total energy              =  -15381.71313394 Ry
     Harris-Foulkes estimate   =  -15381.72839283 Ry
     estimated scf accuracy    <       0.19383807 Ry

     iteration # 12     ecut=    40.42 Ry     beta=0.07
     Davidson diagonalization with overlap
     ethr =  3.10E-05,  avg # of iterations =  3.9

     negative rho (up, down):  3.790E-03 0.000E+00

     total cpu time spent up to now is     3075.0 secs

     total energy              =  -15381.71219278 Ry
     Harris-Foulkes estimate   =  -15381.72314761 Ry
     estimated scf accuracy    <       0.40028539 Ry

     iteration # 13     ecut=    40.42 Ry     beta=0.07
     Davidson diagonalization with overlap
     ethr =  3.10E-05,  avg # of iterations =  1.0

     negative rho (up, down):  3.030E-03 0.000E+00

     total cpu time spent up to now is     3301.5 secs

     total energy              =  -15381.69383097 Ry
     Harris-Foulkes estimate   =  -15381.71464616 Ry
     estimated scf accuracy    <       0.39523472 Ry

     iteration # 14     ecut=    40.42 Ry     beta=0.07
     Davidson diagonalization with overlap
     ethr =  3.10E-05,  avg # of iterations =  3.0

     negative rho (up, down):  2.937E-03 0.000E+00

     total cpu time spent up to now is     3534.2 secs

     total energy              =  -15381.69909555 Ry
     Harris-Foulkes estimate   =  -15381.70137693 Ry
     estimated scf accuracy    <       0.08409033 Ry

     iteration # 15     ecut=    40.42 Ry     beta=0.07
     Davidson diagonalization with overlap
     ethr =  1.34E-05,  avg # of iterations =  1.2

     negative rho (up, down):  3.477E-03 0.000E+00

     total cpu time spent up to now is     3751.5 secs

     total energy              =  -15381.69742760 Ry
     Harris-Foulkes estimate   =  -15381.69991351 Ry
     estimated scf accuracy    <       0.08653389 Ry

     iteration # 16     ecut=    40.42 Ry     beta=0.07
     Davidson diagonalization with overlap
     c_bands:  1 eigenvalues not converged
     ethr =  1.34E-05,  avg # of iterations =  4.1

     negative rho (up, down):  1.901E-02 0.000E+00

     total cpu time spent up to now is     3984.6 secs

     total energy              =  -15381.69533543 Ry
     Harris-Foulkes estimate   =  -15381.69886817 Ry
     estimated scf accuracy    <       0.07115647 Ry

     iteration # 17     ecut=    40.42 Ry     beta=0.07
     Davidson diagonalization with overlap
     ethr =  1.14E-05,  avg # of iterations =  3.7

     negative rho (up, down):  2.939E-02 0.000E+00

     total cpu time spent up to now is     4214.4 secs

     total energy              =  -15381.69644049 Ry
     Harris-Foulkes estimate   =  -15381.69626633 Ry
     estimated scf accuracy    <       0.06193785 Ry

     iteration # 18     ecut=    40.42 Ry     beta=0.07
     Davidson diagonalization with overlap
     ethr =  9.89E-06,  avg # of iterations =  1.8

     negative rho (up, down):  1.606E-02 0.000E+00

     total cpu time spent up to now is     4449.3 secs

     total energy              =  -15381.69740593 Ry
     Harris-Foulkes estimate   =  -15381.69717141 Ry
     estimated scf accuracy    <       0.09086341 Ry

     iteration # 19     ecut=    40.42 Ry     beta=0.07
     Davidson diagonalization with overlap
     ethr =  9.89E-06,  avg # of iterations =  1.0

     negative rho (up, down):  1.151E-02 0.000E+00

     total cpu time spent up to now is     4657.0 secs

     total energy              =  -15381.69768185 Ry
     Harris-Foulkes estimate   =  -15381.69778465 Ry
     estimated scf accuracy    <       0.09582283 Ry

     iteration # 20     ecut=    40.42 Ry     beta=0.07
     Davidson diagonalization with overlap
     ethr =  9.89E-06,  avg # of iterations =  1.3

     negative rho (up, down):  1.197E-01 0.000E+00

     total cpu time spent up to now is     4867.7 secs

     total energy              =  -15381.68900635 Ry
     Harris-Foulkes estimate   =  -15381.69821320 Ry
     estimated scf accuracy    <       0.08590422 Ry

     iteration # 21     ecut=    40.42 Ry     beta=0.07
     Davidson diagonalization with overlap
     ethr =  9.89E-06,  avg # of iterations =  4.8

     negative rho (up, down):  1.108E-01 0.000E+00

     total cpu time spent up to now is     5118.8 secs

     total energy              =  -15381.69245889 Ry
     Harris-Foulkes estimate   =  -15381.69294945 Ry
     estimated scf accuracy    <       0.02605388 Ry

     iteration # 22     ecut=    40.42 Ry     beta=0.07
     Davidson diagonalization with overlap
     ethr =  4.16E-06,  avg # of iterations =  4.3

     negative rho (up, down):  1.360E-01 0.000E+00

     total cpu time spent up to now is     5351.0 secs

     total energy              =  -15381.69105477 Ry
     Harris-Foulkes estimate   =  -15381.69295370 Ry
     estimated scf accuracy    <       0.02907503 Ry

     iteration # 23     ecut=    40.42 Ry     beta=0.07
     Davidson diagonalization with overlap
     ethr =  4.16E-06,  avg # of iterations =  4.3

     negative rho (up, down):  1.798E-01 0.000E+00

     total cpu time spent up to now is     5590.0 secs

     total energy              =  -15381.69149973 Ry
     Harris-Foulkes estimate   =  -15381.69213716 Ry
     estimated scf accuracy    <       0.02708956 Ry

     iteration # 24     ecut=    40.42 Ry     beta=0.07
     Davidson diagonalization with overlap
     c_bands:  2 eigenvalues not converged
     ethr =  4.16E-06,  avg # of iterations =  4.4

     negative rho (up, down):  1.778E-01 0.000E+00

     total cpu time spent up to now is     5823.4 secs

     total energy              =  -15381.69178954 Ry
     Harris-Foulkes estimate   =  -15381.69192287 Ry
     estimated scf accuracy    <       0.01868570 Ry

     iteration # 25     ecut=    40.42 Ry     beta=0.07
     Davidson diagonalization with overlap
     ethr =  2.98E-06,  avg # of iterations =  1.8

     negative rho (up, down):  1.731E-01 0.000E+00

     total cpu time spent up to now is     6042.8 secs

     total energy              =  -15381.69132826 Ry
     Harris-Foulkes estimate   =  -15381.69184808 Ry
     estimated scf accuracy    <       0.01843629 Ry

     iteration # 26     ecut=    40.42 Ry     beta=0.07
     Davidson diagonalization with overlap
     ethr =  2.95E-06,  avg # of iterations =  1.0

     negative rho (up, down):  2.207E-01 0.000E+00

     total cpu time spent up to now is     6264.9 secs

     total energy              =  -15381.69233521 Ry
     Harris-Foulkes estimate   =  -15381.69139537 Ry
     estimated scf accuracy    <       0.01719488 Ry

     iteration # 27     ecut=    40.42 Ry     beta=0.07
     Davidson diagonalization with overlap
     ethr =  2.75E-06,  avg # of iterations =  2.3

     negative rho (up, down):  2.163E-01 0.000E+00

     total cpu time spent up to now is     6489.4 secs

     total energy              =  -15381.69230776 Ry
     Harris-Foulkes estimate   =  -15381.69259917 Ry
     estimated scf accuracy    <       0.01472393 Ry

     iteration # 28     ecut=    40.42 Ry     beta=0.07
     Davidson diagonalization with overlap
     ethr =  2.35E-06,  avg # of iterations =  1.0

     negative rho (up, down):  1.897E-01 0.000E+00

     total cpu time spent up to now is     6705.3 secs

     total energy              =  -15381.69091504 Ry
     Harris-Foulkes estimate   =  -15381.69236042 Ry
     estimated scf accuracy    <       0.01439831 Ry

     iteration # 29     ecut=    40.42 Ry     beta=0.07
     Davidson diagonalization with overlap
     ethr =  2.30E-06,  avg # of iterations =  2.0

     negative rho (up, down):  1.659E-01 0.000E+00

     total cpu time spent up to now is     6927.3 secs

     total energy              =  -15381.68888637 Ry
     Harris-Foulkes estimate   =  -15381.69103653 Ry
     estimated scf accuracy    <       0.01352466 Ry

     iteration # 30     ecut=    40.42 Ry     beta=0.07
     Davidson diagonalization with overlap
     ethr =  2.16E-06,  avg # of iterations =  2.0

     negative rho (up, down):  1.587E-01 0.000E+00

     total cpu time spent up to now is     7150.0 secs

     total energy              =  -15381.68641722 Ry
     Harris-Foulkes estimate   =  -15381.68906738 Ry
     estimated scf accuracy    <       0.01111401 Ry

     iteration # 31     ecut=    40.42 Ry     beta=0.07
     Davidson diagonalization with overlap
     c_bands:  3 eigenvalues not converged
     c_bands:  2 eigenvalues not converged
     ethr =  1.78E-06,  avg # of iterations =  8.2

     negative rho (up, down):  1.045E-01 0.000E+00

     total cpu time spent up to now is     7417.2 secs

     total energy              =  -15381.68396930 Ry
     Harris-Foulkes estimate   =  -15381.68705411 Ry
     estimated scf accuracy    <       0.00755255 Ry

     iteration # 32     ecut=    40.42 Ry     beta=0.07
     Davidson diagonalization with overlap
     c_bands:  1 eigenvalues not converged
     ethr =  1.21E-06,  avg # of iterations =  9.0

     negative rho (up, down):  9.262E-02 0.000E+00

     total cpu time spent up to now is     7695.6 secs

     total energy              =  -15381.68366340 Ry
     Harris-Foulkes estimate   =  -15381.68458955 Ry
     estimated scf accuracy    <       0.00399186 Ry

     iteration # 33     ecut=    40.42 Ry     beta=0.07
     Davidson diagonalization with overlap
     c_bands:  1 eigenvalues not converged
     c_bands:  1 eigenvalues not converged
     c_bands:  1 eigenvalues not converged
     ethr =  6.38E-07,  avg # of iterations = 10.8

     negative rho (up, down):  8.441E-02 0.000E+00

     total cpu time spent up to now is     7967.1 secs

     total energy              =  -15381.68347812 Ry
     Harris-Foulkes estimate   =  -15381.68381165 Ry
     estimated scf accuracy    <       0.00315914 Ry

     iteration # 34     ecut=    40.42 Ry     beta=0.07
     Davidson diagonalization with overlap
     ethr =  5.05E-07,  avg # of iterations =  2.0

     negative rho (up, down):  7.876E-02 0.000E+00

     total cpu time spent up to now is     8185.9 secs

     total energy              =  -15381.68324499 Ry
     Harris-Foulkes estimate   =  -15381.68350290 Ry
     estimated scf accuracy    <       0.00278930 Ry

     iteration # 35     ecut=    40.42 Ry     beta=0.07
     Davidson diagonalization with overlap
     ethr =  4.46E-07,  avg # of iterations =  2.4

     negative rho (up, down):  8.088E-02 0.000E+00

     total cpu time spent up to now is     8408.7 secs

     total energy              =  -15381.68312820 Ry
     Harris-Foulkes estimate   =  -15381.68329790 Ry
     estimated scf accuracy    <       0.00230516 Ry

     iteration # 36     ecut=    40.42 Ry     beta=0.07
     Davidson diagonalization with overlap
     ethr =  3.68E-07,  avg # of iterations =  4.3

     negative rho (up, down):  6.400E-02 0.000E+00

     total cpu time spent up to now is     8650.2 secs

     total energy              =  -15381.68275286 Ry
     Harris-Foulkes estimate   =  -15381.68321005 Ry
     estimated scf accuracy    <       0.00184322 Ry

     iteration # 37     ecut=    40.42 Ry     beta=0.07
     Davidson diagonalization with overlap
     c_bands:  5 eigenvalues not converged
     ethr =  2.94E-07,  avg # of iterations =  5.1

     negative rho (up, down):  6.104E-02 0.000E+00

     total cpu time spent up to now is     8888.5 secs

     total energy              =  -15381.68266868 Ry
     Harris-Foulkes estimate   =  -15381.68280611 Ry
     estimated scf accuracy    <       0.00117557 Ry

     iteration # 38     ecut=    40.42 Ry     beta=0.07
     Davidson diagonalization with overlap
     ethr =  1.88E-07,  avg # of iterations =  2.8

     negative rho (up, down):  6.087E-02 0.000E+00

     total cpu time spent up to now is     9113.1 secs

     total energy              =  -15381.68259191 Ry
     Harris-Foulkes estimate   =  -15381.68268441 Ry
     estimated scf accuracy    <       0.00097108 Ry

     iteration # 39     ecut=    40.42 Ry     beta=0.07
     Davidson diagonalization with overlap
     ethr =  1.55E-07,  avg # of iterations =  2.1

     negative rho (up, down):  6.216E-02 0.000E+00

     total cpu time spent up to now is     9332.7 secs

     total energy              =  -15381.68237878 Ry
     Harris-Foulkes estimate   =  -15381.68260859 Ry
     estimated scf accuracy    <       0.00074196 Ry

     iteration # 40     ecut=    40.42 Ry     beta=0.07
     Davidson diagonalization with overlap
     ethr =  1.19E-07,  avg # of iterations =  6.4

     negative rho (up, down):  6.288E-02 0.000E+00

     total cpu time spent up to now is     9583.6 secs

     total energy              =  -15381.68240993 Ry
     Harris-Foulkes estimate   =  -15381.68242239 Ry
     estimated scf accuracy    <       0.00028281 Ry

     iteration # 41     ecut=    40.42 Ry     beta=0.07
     Davidson diagonalization with overlap
     c_bands:  1 eigenvalues not converged
     c_bands:  1 eigenvalues not converged
     ethr =  4.52E-08,  avg # of iterations =  8.9

     negative rho (up, down):  6.668E-02 0.000E+00

     total cpu time spent up to now is     9843.7 secs

     total energy              =  -15381.68238761 Ry
     Harris-Foulkes estimate   =  -15381.68241444 Ry
     estimated scf accuracy    <       0.00024154 Ry

     iteration # 42     ecut=    40.42 Ry     beta=0.07
     Davidson diagonalization with overlap
     c_bands:  1 eigenvalues not converged
     ethr =  3.86E-08,  avg # of iterations =  8.5

     negative rho (up, down):  6.718E-02 0.000E+00

     total cpu time spent up to now is    10115.7 secs

     total energy              =  -15381.68239780 Ry
     Harris-Foulkes estimate   =  -15381.68240060 Ry
     estimated scf accuracy    <       0.00012427 Ry

     iteration # 43     ecut=    40.42 Ry     beta=0.07
     Davidson diagonalization with overlap
     c_bands:  3 eigenvalues not converged
     c_bands:  1 eigenvalues not converged
     c_bands:  4 eigenvalues not converged
     ethr =  1.99E-08,  avg # of iterations =  9.3

     negative rho (up, down):  6.880E-02 0.000E+00

     total cpu time spent up to now is    10363.8 secs

     total energy              =  -15381.68238143 Ry
     Harris-Foulkes estimate   =  -15381.68239982 Ry
     estimated scf accuracy    <       0.00010948 Ry

     iteration # 44     ecut=    40.42 Ry     beta=0.07
     Davidson diagonalization with overlap
     c_bands:  1 eigenvalues not converged
     c_bands:  4 eigenvalues not converged
     ethr =  1.75E-08,  avg # of iterations =  9.3

     negative rho (up, down):  6.906E-02 0.000E+00

     total cpu time spent up to now is    10619.9 secs

     total energy              =  -15381.68238556 Ry
     Harris-Foulkes estimate   =  -15381.68238635 Ry
     estimated scf accuracy    <       0.00007166 Ry

     iteration # 45     ecut=    40.42 Ry     beta=0.07
     Davidson diagonalization with overlap
     ethr =  1.14E-08,  avg # of iterations =  3.0

     negative rho (up, down):  6.882E-02 0.000E+00

     total cpu time spent up to now is    10855.1 secs

     total energy              =  -15381.68237306 Ry
     Harris-Foulkes estimate   =  -15381.68238623 Ry
     estimated scf accuracy    <       0.00006179 Ry

     iteration # 46     ecut=    40.42 Ry     beta=0.07
     Davidson diagonalization with overlap
     ethr =  9.87E-09,  avg # of iterations =  4.5

     negative rho (up, down):  6.806E-02 0.000E+00

     total cpu time spent up to now is    11086.8 secs

     total energy              =  -15381.68235841 Ry
     Harris-Foulkes estimate   =  -15381.68237435 Ry
     estimated scf accuracy    <       0.00004242 Ry

     iteration # 47     ecut=    40.42 Ry     beta=0.07
     Davidson diagonalization with overlap
     ethr =  6.78E-09,  avg # of iterations =  4.0

     negative rho (up, down):  6.752E-02 0.000E+00

     total cpu time spent up to now is    11323.8 secs

     total energy              =  -15381.68235443 Ry
     Harris-Foulkes estimate   =  -15381.68236012 Ry
     estimated scf accuracy    <       0.00002825 Ry

     iteration # 48     ecut=    40.42 Ry     beta=0.07
     Davidson diagonalization with overlap
     ethr =  4.51E-09,  avg # of iterations =  2.8

     negative rho (up, down):  6.685E-02 0.000E+00

     total cpu time spent up to now is    11548.7 secs

     total energy              =  -15381.68235167 Ry
     Harris-Foulkes estimate   =  -15381.68235512 Ry
     estimated scf accuracy    <       0.00002189 Ry

     iteration # 49     ecut=    40.42 Ry     beta=0.07
     Davidson diagonalization with overlap
     c_bands:  1 eigenvalues not converged
     c_bands:  1 eigenvalues not converged
     c_bands:  2 eigenvalues not converged
     c_bands:  1 eigenvalues not converged
     ethr =  3.50E-09,  avg # of iterations = 12.3

     negative rho (up, down):  6.734E-02 0.000E+00

     total cpu time spent up to now is    11833.4 secs

     total energy              =  -15381.68235166 Ry
     Harris-Foulkes estimate   =  -15381.68235263 Ry
     estimated scf accuracy    <       0.00001671 Ry

     iteration # 50     ecut=    40.42 Ry     beta=0.07
     Davidson diagonalization with overlap
     ethr =  2.67E-09,  avg # of iterations =  3.8

     negative rho (up, down):  6.771E-02 0.000E+00

     total cpu time spent up to now is    12063.3 secs

     total energy              =  -15381.68234739 Ry
     Harris-Foulkes estimate   =  -15381.68235181 Ry
     estimated scf accuracy    <       0.00001395 Ry

     iteration # 51     ecut=    40.42 Ry     beta=0.07
     Davidson diagonalization with overlap
     ethr =  2.23E-09,  avg # of iterations =  3.0

     negative rho (up, down):  6.713E-02 0.000E+00

     total cpu time spent up to now is    12292.1 secs

     total energy              =  -15381.68234685 Ry
     Harris-Foulkes estimate   =  -15381.68234783 Ry
     estimated scf accuracy    <       0.00000886 Ry

     iteration # 52     ecut=    40.42 Ry     beta=0.07
     Davidson diagonalization with overlap
     c_bands:  1 eigenvalues not converged
     ethr =  1.42E-09,  avg # of iterations =  5.3

     negative rho (up, down):  6.722E-02 0.000E+00

     total cpu time spent up to now is    12538.3 secs

     total energy              =  -15381.68234605 Ry
     Harris-Foulkes estimate   =  -15381.68234722 Ry
     estimated scf accuracy    <       0.00000665 Ry

     iteration # 53     ecut=    40.42 Ry     beta=0.07
     Davidson diagonalization with overlap
     c_bands:  1 eigenvalues not converged
     c_bands:  1 eigenvalues not converged
     ethr =  1.06E-09,  avg # of iterations =  5.9

     negative rho (up, down):  6.660E-02 0.000E+00

     total cpu time spent up to now is    12780.0 secs

     total energy              =  -15381.68234573 Ry
     Harris-Foulkes estimate   =  -15381.68234626 Ry
     estimated scf accuracy    <       0.00000447 Ry

     iteration # 54     ecut=    40.42 Ry     beta=0.07
     Davidson diagonalization with overlap
     c_bands:  1 eigenvalues not converged
     c_bands:  2 eigenvalues not converged
     c_bands:  2 eigenvalues not converged
     c_bands:  1 eigenvalues not converged
     ethr =  7.14E-10,  avg # of iterations = 12.7

     negative rho (up, down):  6.679E-02 0.000E+00

     total cpu time spent up to now is    13082.0 secs

     total energy              =  -15381.68234538 Ry
     Harris-Foulkes estimate   =  -15381.68234598 Ry
     estimated scf accuracy    <       0.00000301 Ry

     iteration # 55     ecut=    40.42 Ry     beta=0.07
     Davidson diagonalization with overlap
     c_bands:  1 eigenvalues not converged
     ethr =  4.81E-10,  avg # of iterations =  8.0

     negative rho (up, down):  6.671E-02 0.000E+00

     total cpu time spent up to now is    13342.5 secs

     total energy              =  -15381.68234554 Ry
     Harris-Foulkes estimate   =  -15381.68234556 Ry
     estimated scf accuracy    <       0.00000168 Ry

     iteration # 56     ecut=    40.42 Ry     beta=0.07
     Davidson diagonalization with overlap
     c_bands:  1 eigenvalues not converged
     ethr =  2.68E-10,  avg # of iterations =  3.8

     negative rho (up, down):  6.683E-02 0.000E+00

     total cpu time spent up to now is    13574.4 secs

     total energy              =  -15381.68234534 Ry
     Harris-Foulkes estimate   =  -15381.68234557 Ry
     estimated scf accuracy    <       0.00000140 Ry

     iteration # 57     ecut=    40.42 Ry     beta=0.07
     Davidson diagonalization with overlap
     c_bands:  1 eigenvalues not converged
     ethr =  2.24E-10,  avg # of iterations =  5.2

     negative rho (up, down):  6.671E-02 0.000E+00

     total cpu time spent up to now is    13830.3 secs

     total energy              =  -15381.68234546 Ry
     Harris-Foulkes estimate   =  -15381.68234541 Ry
     estimated scf accuracy    <       0.00000096 Ry

     iteration # 58     ecut=    40.42 Ry     beta=0.07
     Davidson diagonalization with overlap
     ethr =  1.53E-10,  avg # of iterations =  2.8

     negative rho (up, down):  6.653E-02 0.000E+00

     total cpu time spent up to now is    14057.7 secs

     total energy              =  -15381.68234548 Ry
     Harris-Foulkes estimate   =  -15381.68234548 Ry
     estimated scf accuracy    <       0.00000086 Ry

     iteration # 59     ecut=    40.42 Ry     beta=0.07
     Davidson diagonalization with overlap
     c_bands:  3 eigenvalues not converged
     ethr =  1.38E-10,  avg # of iterations =  4.7

     negative rho (up, down):  6.663E-02 0.000E+00

     total cpu time spent up to now is    14292.9 secs

     total energy              =  -15381.68234544 Ry
     Harris-Foulkes estimate   =  -15381.68234551 Ry
     estimated scf accuracy    <       0.00000066 Ry

     iteration # 60     ecut=    40.42 Ry     beta=0.07
     Davidson diagonalization with overlap
     c_bands:  1 eigenvalues not converged
     c_bands:  1 eigenvalues not converged
     ethr =  1.05E-10,  avg # of iterations =  6.8

     negative rho (up, down):  6.664E-02 0.000E+00

     total cpu time spent up to now is    14542.5 secs

     total energy              =  -15381.68234546 Ry
     Harris-Foulkes estimate   =  -15381.68234546 Ry
     estimated scf accuracy    <       0.00000051 Ry

     iteration # 61     ecut=    40.42 Ry     beta=0.07
     Davidson diagonalization with overlap
     c_bands:  1 eigenvalues not converged
     ethr =  8.23E-11,  avg # of iterations =  2.9

     negative rho (up, down):  6.682E-02 0.000E+00

     total cpu time spent up to now is    14767.2 secs

     total energy              =  -15381.68234529 Ry
     Harris-Foulkes estimate   =  -15381.68234546 Ry
     estimated scf accuracy    <       0.00000049 Ry

     iteration # 62     ecut=    40.42 Ry     beta=0.07
     Davidson diagonalization with overlap
     c_bands:  3 eigenvalues not converged
     ethr =  7.79E-11,  avg # of iterations = 10.1

     negative rho (up, down):  6.671E-02 0.000E+00

     total cpu time spent up to now is    15056.2 secs

     End of self-consistent calculation

          k = 0.0000 0.0000 0.0000 ( 86627 PWs)   bands (ev):

   -79.2902 -79.2678 -79.2401 -79.2392 -79.2383 -79.2354 -79.2336 -79.2281
   -79.2147 -79.1990 -79.1980 -79.1972 -79.1947 -79.1920 -79.1917 -79.1907
   -79.1905 -79.1893 -79.1878 -79.1873 -79.1869 -79.1852 -79.1844 -79.1747
   -79.1724 -79.1723 -79.1709 -79.1691 -79.1656 -79.1653 -79.1649 -79.1624
   -47.4271 -47.4259 -47.4257 -47.3757 -47.3741 -47.3737 -47.3192 -47.3173
   -47.3147 -47.3139 -47.3136 -47.3115 -47.2891 -47.2875 -47.2852 -47.2845
   -47.2844 -47.2827 -47.1665 -47.1563 -47.1544 -47.1515 -47.1500 -47.1493
   -47.1420 -47.1351 -47.1345 -47.1329 -47.1304 -47.1282 -47.1265 -47.1057
   -47.1045 -47.1025 -47.1007 -47.0988 -47.0983 -47.0415 -47.0406 -47.0370
   -47.0357 -47.0342 -47.0337 -47.0093 -46.9922 -46.9913 -46.9879 -46.9873
   -46.9868 -46.9865 -46.9846 -46.9838 -46.9336 -46.9227 -46.9217 -46.9183
   -46.9178 -46.9165 -46.9159 -46.9106 -46.9103 -46.9096 -46.9085 -46.9071
   -46.9059 -46.8963 -46.8950 -46.8933 -46.8927 -46.8922 -46.8498 -46.8485
   -46.8456 -46.8454 -46.8440 -46.8432 -46.8386 -46.8383 -46.8171 -46.7940
   -46.7934 -46.7916 -46.7905 -46.7903 -46.7853 -46.7835 -46.7823 -46.7819
   -46.7806 -46.7581 -46.7563 -46.7535 -46.7525 -46.7500 -46.7464 -46.7446
   -23.7660 -23.2623 -22.0495 -21.6051 -21.3692 -21.1879 -20.7158 -20.5765
   -15.3741 -14.4613 -12.9776 -11.8760 -11.1833 -10.2158  -9.3296  -8.9752
    -8.5753  -8.3593  -7.8882  -7.6294  -7.5413  -7.1574  -7.1197  -7.0204
    -6.6945  -6.5197  -6.1860  -6.0537  -6.0471  -6.0466  -5.9356  -5.7881
    -5.7123  -5.7116  -5.7101  -5.7090  -5.7056  -5.7034  -5.7017  -5.6966
    -5.6767  -5.5957  -5.3514  -5.3480  -5.3290  -5.1741  -5.1626  -5.1610
    -5.1592  -5.1581  -5.1570  -5.1233  -5.0976  -5.0939  -5.0931  -5.0925
    -5.0913  -5.0855  -4.6726  -4.6646  -4.6553  -4.6538  -4.6529  -4.6516
    -4.5956  -4.5832  -4.5783  -4.5759  -4.5748  -4.5740  -4.5598  -4.4034
    -4.3954  -4.3933  -4.3915  -4.3896  -4.3849  -4.1142  -4.0089  -3.8595
    -3.8567  -3.8456  -3.7730  -3.5656  -3.5634  -3.5619  -3.5611  -3.5610
    -3.5588  -3.5389  -3.5273  -3.4974  -3.4928  -3.4849  -3.4844  -3.4793
    -3.4676  -3.3524  -3.2967  -3.2962  -3.2532  -3.2350  -3.2316  -3.2299
    -3.2277  -3.2191  -3.1213  -3.1206  -3.0867  -3.0701  -3.0660  -3.0641
    -3.0630  -3.0615  -3.0329  -3.0149  -3.0098  -3.0058  -3.0029  -2.9956
    -2.7702  -2.7653  -2.7536  -2.7516  -2.7485  -2.7457  -2.7220  -2.6936
    -2.6882  -2.6824  -2.6791  -2.6766  -2.6435  -2.5836  -2.5818  -2.5764
    -2.5188  -2.4688  -2.3371  -2.3338  -2.3288  -2.3281  -2.3277  -2.3263
    -2.2122  -1.9592  -1.8688  -1.8587  -1.8564  -1.8480  -1.8191  -1.8176
    -1.8154  -1.8136  -1.8134  -1.8132  -1.8118  -1.7918  -1.6473  -1.6427
    -1.6328  -1.5455  -1.5307  -1.3567  -1.3516  -1.3419  -1.3374  -1.3374
    -1.3359  -1.3358  -1.3341  -1.3151  -1.3138  -1.3109  -1.3105  -1.3098
    -1.3085  -1.1729  -1.1595  -1.1545  -1.1538  -1.1525  -1.1230  -1.0641
    -1.0602  -1.0319  -0.6559  -0.6536  -0.6480  -0.4292  -0.4237  -0.4132
    -0.4128  -0.4114  -0.4102

          k = 0.0000 0.0268 0.0000 ( 86514 PWs)   bands (ev):

   -79.2883 -79.2685 -79.2529 -79.2444 -79.2353 -79.2266 -79.2255 -79.2222
   -79.2129 -79.2066 -79.2021 -79.2007 -79.1992 -79.1945 -79.1912 -79.1903
   -79.1897 -79.1886 -79.1873 -79.1864 -79.1843 -79.1807 -79.1793 -79.1765
   -79.1743 -79.1728 -79.1708 -79.1692 -79.1665 -79.1655 -79.1639 -79.1624
   -47.4131 -47.4121 -47.4043 -47.3624 -47.3611 -47.3557 -47.3391 -47.3374
   -47.3224 -47.3191 -47.3010 -47.2986 -47.2945 -47.2913 -47.2847 -47.2836
   -47.2675 -47.2657 -47.2538 -47.2202 -47.2044 -47.2037 -47.1798 -47.1781
   -47.1517 -47.1500 -47.1413 -47.1272 -47.1223 -47.1137 -47.0907 -47.0882
   -47.0848 -47.0842 -47.0821 -47.0802 -47.0490 -47.0473 -47.0280 -47.0179
   -47.0117 -47.0079 -47.0071 -47.0027 -46.9878 -46.9866 -46.9836 -46.9797
   -46.9772 -46.9754 -46.9742 -46.9479 -46.9448 -46.9360 -46.9354 -46.9347
   -46.9301 -46.9275 -46.9211 -46.9190 -46.9062 -46.9038 -46.9029 -46.9014
   -46.8980 -46.8978 -46.8940 -46.8854 -46.8756 -46.8704 -46.8689 -46.8686
   -46.8672 -46.8645 -46.8447 -46.8412 -46.8397 -46.8200 -46.8186 -46.8066
   -46.8011 -46.7979 -46.7925 -46.7901 -46.7894 -46.7856 -46.7840 -46.7732
   -46.7697 -46.7620 -46.7594 -46.7568 -46.7533 -46.7494 -46.7469 -46.7440
   -23.7659 -23.2623 -22.0495 -21.6051 -21.3692 -21.1879 -20.7158 -20.5765
   -15.3741 -14.4614 -12.9776 -11.8760 -11.1833 -10.2156  -9.3297  -8.9747
    -8.5750  -8.3595  -7.8877  -7.6304  -7.5419  -7.1566  -7.0211  -6.9815
    -6.6948  -6.5207  -6.0787  -6.0601  -5.9969  -5.9461  -5.9346  -5.9225
    -5.7751  -5.7560  -5.7388  -5.6951  -5.6450  -5.6068  -5.5852  -5.5825
    -5.5629  -5.5586  -5.3130  -5.2970  -5.2922  -5.2915  -5.2686  -5.2492
    -5.2466  -5.1566  -5.1555  -5.1297  -5.0999  -5.0966  -5.0861  -5.0825
    -5.0689  -5.0645  -4.8851  -4.8822  -4.8280  -4.8254  -4.7758  -4.7547
    -4.7524  -4.6748  -4.6710  -4.6267  -4.6217  -4.6040  -4.5858  -4.5668
    -4.5550  -4.5405  -4.2085  -4.1994  -4.1186  -4.0169  -3.9759  -3.8184
    -3.8142  -3.8080  -3.7757  -3.7582  -3.7505  -3.7109  -3.5871  -3.5819
    -3.5519  -3.5357  -3.5259  -3.5220  -3.5180  -3.5106  -3.4968  -3.4743
    -3.4703  -3.3594  -3.3560  -3.3234  -3.3183  -3.3038  -3.2977  -3.2779
    -3.2754  -3.2278  -3.2116  -3.1963  -3.1013  -3.0984  -3.0865  -3.0775
    -3.0756  -3.0699  -3.0306  -2.8886  -2.8839  -2.8704  -2.8553  -2.7542
    -2.7473  -2.7106  -2.6962  -2.6879  -2.6747  -2.6701  -2.6617  -2.6601
    -2.6364  -2.6169  -2.6150  -2.5959  -2.5537  -2.5225  -2.5206  -2.4881
    -2.3788  -2.3750  -2.3336  -2.3309  -2.3099  -2.3056  -2.2717  -2.2694
    -2.2124  -2.0180  -1.9676  -1.9542  -1.9471  -1.8847  -1.8734  -1.8264
    -1.7868  -1.7482  -1.7394  -1.7289  -1.7185  -1.6801  -1.5487  -1.5256
    -1.4959  -1.4154  -1.4098  -1.3832  -1.3411  -1.3367  -1.3347  -1.3269
    -1.3110  -1.3103  -1.2220  -1.2205  -1.2035  -1.1925  -1.1888  -1.1736
    -1.1448  -1.1396  -1.0945  -1.0913  -1.0588  -0.9771  -0.9687  -0.8346
    -0.8290  -0.8257  -0.8092  -0.7377  -0.7343  -0.6637  -0.5205  -0.5161
    -0.4929  -0.4911  -0.4150

          k = 0.0000-0.0537 0.0000 ( 86504 PWs)   bands (ev):

   -79.2858 -79.2694 -79.2593 -79.2467 -79.2352 -79.2180 -79.2160 -79.2150
   -79.2133 -79.2131 -79.2105 -79.2037 -79.2018 -79.1998 -79.1925 -79.1892
   -79.1889 -79.1871 -79.1857 -79.1829 -79.1814 -79.1812 -79.1787 -79.1758
   -79.1750 -79.1745 -79.1707 -79.1692 -79.1667 -79.1660 -79.1637 -79.1626
   -47.3833 -47.3810 -47.3788 -47.3784 -47.3504 -47.3455 -47.3376 -47.3355
   -47.3335 -47.3330 -47.3230 -47.3199 -47.3029 -47.2984 -47.2793 -47.2755
   -47.2559 -47.2546 -47.2526 -47.2518 -47.2310 -47.2282 -47.2259 -47.2250
   -47.1730 -47.1702 -47.1382 -47.1227 -47.1184 -47.1160 -47.1040 -47.1009
   -47.0677 -47.0651 -47.0502 -47.0455 -47.0451 -47.0436 -47.0179 -47.0044
   -47.0031 -47.0028 -46.9861 -46.9825 -46.9743 -46.9725 -46.9718 -46.9709
   -46.9671 -46.9656 -46.9595 -46.9490 -46.9484 -46.9478 -46.9470 -46.9445
   -46.9281 -46.9255 -46.9121 -46.9091 -46.9078 -46.9071 -46.9040 -46.8973
   -46.8962 -46.8947 -46.8934 -46.8916 -46.8896 -46.8882 -46.8633 -46.8624
   -46.8605 -46.8575 -46.8552 -46.8547 -46.8446 -46.8431 -46.8209 -46.8091
   -46.8029 -46.8009 -46.8002 -46.7895 -46.7884 -46.7859 -46.7743 -46.7734
   -46.7662 -46.7622 -46.7610 -46.7592 -46.7520 -46.7495 -46.7471 -46.7449
   -23.7659 -23.2623 -22.0495 -21.6051 -21.3692 -21.1879 -20.7158 -20.5765
   -15.3740 -14.4614 -12.9775 -11.8760 -11.1834 -10.2155  -9.3299  -8.9742
    -8.5747  -8.3596  -7.8873  -7.6313  -7.5426  -7.1559  -7.0203  -6.6952
    -6.6316  -6.5924  -6.4806  -5.9361  -5.8571  -5.8509  -5.7821  -5.7622
    -5.7492  -5.7193  -5.7018  -5.6257  -5.6249  -5.6213  -5.6205  -5.5872
    -5.4953  -5.4881  -5.3418  -5.3408  -5.3395  -5.3389  -5.2727  -5.2670
    -5.2647  -5.2643  -5.1489  -5.1423  -5.1358  -5.1347  -5.1203  -5.0772
    -5.0740  -5.0586  -5.0507  -5.0078  -5.0008  -4.9209  -4.9192  -4.9158
    -4.9142  -4.7193  -4.7115  -4.7061  -4.7016  -4.6220  -4.6170  -4.5858
    -4.5580  -4.5435  -4.1416  -4.1189  -4.1072  -4.0168  -3.8813  -3.8664
    -3.7779  -3.7144  -3.7127  -3.7094  -3.7006  -3.6894  -3.6854  -3.6773
    -3.6618  -3.5483  -3.5393  -3.5351  -3.5342  -3.5309  -3.5297  -3.5269
    -3.5195  -3.5032  -3.4759  -3.4725  -3.3865  -3.3757  -3.3529  -3.3164
    -3.3088  -3.2568  -3.2468  -3.2454  -3.2434  -2.9127  -2.9108  -2.9071
    -2.9046  -2.8992  -2.8956  -2.8916  -2.8899  -2.8838  -2.8814  -2.8798
    -2.8661  -2.7775  -2.7719  -2.7519  -2.7429  -2.6849  -2.6439  -2.6350
    -2.5553  -2.5185  -2.4778  -2.4739  -2.4029  -2.4028  -2.4001  -2.3974
    -2.3752  -2.3703  -2.3089  -2.2588  -2.1963  -2.0760  -2.0743  -2.0697
    -2.0692  -2.0484  -2.0379  -1.9616  -1.9583  -1.9051  -1.8360  -1.7862
    -1.6695  -1.6605  -1.6508  -1.6466  -1.5949  -1.5435  -1.5394  -1.5352
    -1.5315  -1.5165  -1.5084  -1.4792  -1.4747  -1.4705  -1.4254  -1.4108
    -1.4066  -1.2096  -1.2073  -0.9964  -0.9895  -0.9865  -0.9820  -0.9375
    -0.9311  -0.9282  -0.9246  -0.8054  -0.8016  -0.7988  -0.7972  -0.7786
    -0.7737  -0.7718  -0.7666  -0.6621  -0.6560  -0.5817  -0.5732  -0.5413
    -0.5289  -0.5205  -0.5163

          k = 0.0232 0.0403 0.0000 ( 86511 PWs)   bands (ev):

   -79.2859 -79.2683 -79.2612 -79.2465 -79.2299 -79.2263 -79.2183 -79.2148
   -79.2123 -79.2111 -79.2075 -79.2022 -79.2004 -79.1983 -79.1947 -79.1927
   -79.1906 -79.1874 -79.1845 -79.1829 -79.1810 -79.1799 -79.1783 -79.1757
   -79.1739 -79.1736 -79.1724 -79.1695 -79.1678 -79.1654 -79.1637 -79.1624
   -47.3967 -47.3772 -47.3761 -47.3621 -47.3618 -47.3472 -47.3335 -47.3313
   -47.3286 -47.3276 -47.3158 -47.3147 -47.3022 -47.3019 -47.2910 -47.2887
   -47.2840 -47.2626 -47.2614 -47.2534 -47.2278 -47.2161 -47.2124 -47.1689
   -47.1659 -47.1553 -47.1497 -47.1412 -47.1335 -47.1190 -47.1142 -47.1063
   -47.1050 -47.0537 -47.0354 -47.0338 -47.0268 -47.0247 -47.0189 -47.0087
   -47.0010 -46.9981 -46.9953 -46.9863 -46.9849 -46.9822 -46.9792 -46.9737
   -46.9657 -46.9556 -46.9540 -46.9538 -46.9421 -46.9378 -46.9337 -46.9290
   -46.9275 -46.9262 -46.9200 -46.9184 -46.9160 -46.9117 -46.9065 -46.9058
   -46.9038 -46.8925 -46.8912 -46.8874 -46.8804 -46.8796 -46.8767 -46.8751
   -46.8696 -46.8686 -46.8613 -46.8480 -46.8338 -46.8251 -46.8181 -46.8167
   -46.8084 -46.7996 -46.7988 -46.7955 -46.7858 -46.7803 -46.7780 -46.7740
   -46.7687 -46.7662 -46.7615 -46.7552 -46.7519 -46.7491 -46.7479 -46.7447
   -23.7660 -23.2623 -22.0495 -21.6051 -21.3692 -21.1879 -20.7158 -20.5765
   -15.3741 -14.4614 -12.9776 -11.8760 -11.1833 -10.2155  -9.3297  -8.9746
    -8.5750  -8.3597  -7.8875  -7.6306  -7.5417  -7.1563  -7.0202  -6.7258
    -6.6947  -6.5220  -6.2460  -6.2314  -5.9360  -5.8361  -5.8322  -5.8235
    -5.7580  -5.6695  -5.6681  -5.6661  -5.6013  -5.4878  -5.4871  -5.4790
    -5.4759  -5.4204  -5.4128  -5.3773  -5.3746  -5.3210  -5.3113  -5.3080
    -5.2919  -5.2874  -5.1955  -5.1677  -5.1650  -5.1387  -5.1327  -5.1165
    -5.1050  -4.9754  -4.9677  -4.9591  -4.9548  -4.9515  -4.9219  -4.9161
    -4.9142  -4.9118  -4.7852  -4.7792  -4.6562  -4.5801  -4.5182  -4.4324
    -4.4028  -4.3965  -4.3951  -4.1235  -4.0194  -3.8594  -3.8554  -3.8418
    -3.8324  -3.7770  -3.7398  -3.7361  -3.7308  -3.7239  -3.6794  -3.6738
    -3.6364  -3.6329  -3.6264  -3.6056  -3.5943  -3.5858  -3.5766  -3.5214
    -3.4946  -3.4912  -3.4636  -3.4416  -3.4129  -3.4021  -3.3956  -3.3872
    -3.3614  -3.2975  -3.2613  -3.2299  -3.2236  -3.1030  -3.0915  -3.0193
    -2.9907  -2.9447  -2.9380  -2.8459  -2.8244  -2.8133  -2.7233  -2.6917
    -2.6738  -2.6246  -2.6160  -2.6018  -2.5884  -2.5773  -2.5699  -2.5526
    -2.5472  -2.5366  -2.5266  -2.5097  -2.4326  -2.4262  -2.4148  -2.4088
    -2.4044  -2.3735  -2.3303  -2.3248  -2.2203  -2.1580  -2.1489  -2.1424
    -2.0003  -1.9868  -1.9631  -1.9532  -1.9234  -1.8892  -1.8711  -1.8330
    -1.8290  -1.7944  -1.6483  -1.6217  -1.5968  -1.5556  -1.5436  -1.5030
    -1.4586  -1.4359  -1.4217  -1.3904  -1.3807  -1.3613  -1.3586  -1.3411
    -1.3341  -1.2922  -1.2756  -1.1908  -1.1867  -1.1601  -1.0995  -0.9430
    -0.9301  -0.9214  -0.8568  -0.8522  -0.8376  -0.7915  -0.7900  -0.7788
    -0.7746  -0.7581  -0.7457  -0.7385  -0.6545  -0.6471  -0.6026  -0.6003
    -0.5951  -0.5761  -0.5590

          k =-0.0232 0.0134 0.0000 ( 86514 PWs)   bands (ev):

   -79.2882 -79.2688 -79.2520 -79.2439 -79.2374 -79.2261 -79.2255 -79.2215
   -79.2131 -79.2064 -79.2014 -79.2002 -79.1991 -79.1959 -79.1922 -79.1913
   -79.1899 -79.1881 -79.1872 -79.1858 -79.1834 -79.1807 -79.1790 -79.1760
   -79.1740 -79.1726 -79.1717 -79.1702 -79.1663 -79.1656 -79.1637 -79.1623
   -47.4134 -47.4122 -47.4039 -47.3627 -47.3613 -47.3554 -47.3396 -47.3376
   -47.3221 -47.3188 -47.3014 -47.2986 -47.2935 -47.2914 -47.2855 -47.2832
   -47.2670 -47.2658 -47.2539 -47.2200 -47.2045 -47.2037 -47.1793 -47.1783
   -47.1524 -47.1502 -47.1415 -47.1273 -47.1222 -47.1137 -47.0919 -47.0877
   -47.0850 -47.0841 -47.0819 -47.0794 -47.0490 -47.0476 -47.0279 -47.0183
   -47.0112 -47.0083 -47.0063 -47.0028 -46.9878 -46.9863 -46.9835 -46.9801
   -46.9775 -46.9761 -46.9738 -46.9484 -46.9450 -46.9365 -46.9353 -46.9337
   -46.9295 -46.9275 -46.9208 -46.9182 -46.9065 -46.9039 -46.9031 -46.9018
   -46.8999 -46.8972 -46.8935 -46.8856 -46.8750 -46.8702 -46.8692 -46.8682
   -46.8671 -46.8642 -46.8449 -46.8413 -46.8394 -46.8201 -46.8193 -46.8063
   -46.8004 -46.7974 -46.7928 -46.7921 -46.7889 -46.7849 -46.7831 -46.7750
   -46.7693 -46.7622 -46.7591 -46.7562 -46.7530 -46.7504 -46.7466 -46.7441
   -23.7659 -23.2623 -22.0495 -21.6051 -21.3692 -21.1879 -20.7158 -20.5765
   -15.3741 -14.4613 -12.9775 -11.8759 -11.1833 -10.2157  -9.3297  -8.9748
    -8.5750  -8.3592  -7.8880  -7.6301  -7.5421  -7.1570  -7.0212  -6.9817
    -6.6945  -6.5206  -6.0745  -6.0597  -5.9991  -5.9468  -5.9345  -5.9241
    -5.7954  -5.7543  -5.7230  -5.6922  -5.6486  -5.6037  -5.5844  -5.5795
    -5.5636  -5.5610  -5.3136  -5.2948  -5.2927  -5.2883  -5.2747  -5.2482
    -5.2444  -5.1566  -5.1548  -5.1252  -5.1007  -5.0981  -5.0864  -5.0820
    -5.0707  -5.0683  -4.8830  -4.8809  -4.8260  -4.8241  -4.7810  -4.7550
    -4.7512  -4.6750  -4.6708  -4.6296  -4.6207  -4.6005  -4.5836  -4.5698
    -4.5552  -4.5442  -4.2064  -4.1984  -4.1175  -4.0240  -3.9711  -3.8168
    -3.8155  -3.8083  -3.7758  -3.7577  -3.7516  -3.7100  -3.5861  -3.5843
    -3.5523  -3.5375  -3.5273  -3.5203  -3.5187  -3.5107  -3.4982  -3.4717
    -3.4639  -3.3619  -3.3567  -3.3260  -3.3186  -3.3042  -3.2929  -3.2804
    -3.2744  -3.2282  -3.2122  -3.1961  -3.1028  -3.0970  -3.0868  -3.0795
    -3.0774  -3.0668  -3.0304  -2.8918  -2.8841  -2.8699  -2.8518  -2.7503
    -2.7481  -2.7210  -2.6964  -2.6805  -2.6749  -2.6700  -2.6643  -2.6549
    -2.6369  -2.6174  -2.6146  -2.5968  -2.5535  -2.5217  -2.5187  -2.4856
    -2.3792  -2.3750  -2.3340  -2.3318  -2.3106  -2.3061  -2.2725  -2.2700
    -2.2128  -2.0168  -1.9730  -1.9532  -1.9505  -1.8823  -1.8643  -1.8355
    -1.7867  -1.7460  -1.7368  -1.7301  -1.7211  -1.6798  -1.5472  -1.5262
    -1.4968  -1.4160  -1.4111  -1.3837  -1.3440  -1.3357  -1.3342  -1.3262
    -1.3100  -1.3083  -1.2217  -1.2190  -1.2034  -1.1920  -1.1876  -1.1746
    -1.1440  -1.1397  -1.0962  -1.0942  -1.0520  -0.9794  -0.9664  -0.8374
    -0.8291  -0.8247  -0.8091  -0.7363  -0.7347  -0.6643  -0.5208  -0.5161
    -0.4933  -0.4901  -0.4170

          k = 0.0232 0.0134 0.0000 ( 86514 PWs)   bands (ev):

   -79.2883 -79.2686 -79.2523 -79.2437 -79.2373 -79.2265 -79.2252 -79.2216
   -79.2127 -79.2066 -79.2010 -79.2006 -79.1991 -79.1958 -79.1916 -79.1912
   -79.1897 -79.1884 -79.1875 -79.1867 -79.1835 -79.1796 -79.1791 -79.1763
   -79.1737 -79.1724 -79.1722 -79.1696 -79.1672 -79.1652 -79.1636 -79.1623
   -47.4129 -47.4121 -47.4045 -47.3626 -47.3611 -47.3556 -47.3385 -47.3381
   -47.3231 -47.3187 -47.2999 -47.2994 -47.2935 -47.2911 -47.2858 -47.2833
   -47.2680 -47.2656 -47.2541 -47.2196 -47.2040 -47.2034 -47.1804 -47.1781
   -47.1517 -47.1502 -47.1415 -47.1272 -47.1223 -47.1137 -47.0907 -47.0887
   -47.0859 -47.0842 -47.0815 -47.0794 -47.0485 -47.0473 -47.0283 -47.0187
   -47.0109 -47.0088 -47.0059 -47.0025 -46.9880 -46.9860 -46.9836 -46.9801
   -46.9775 -46.9759 -46.9738 -46.9482 -46.9463 -46.9360 -46.9357 -46.9333
   -46.9293 -46.9268 -46.9212 -46.9183 -46.9072 -46.9037 -46.9031 -46.9018
   -46.8996 -46.8972 -46.8935 -46.8856 -46.8747 -46.8702 -46.8693 -46.8683
   -46.8670 -46.8641 -46.8448 -46.8415 -46.8393 -46.8202 -46.8194 -46.8064
   -46.8008 -46.7967 -46.7927 -46.7915 -46.7886 -46.7863 -46.7824 -46.7752
   -46.7695 -46.7625 -46.7589 -46.7556 -46.7522 -46.7511 -46.7470 -46.7439
   -23.7660 -23.2623 -22.0495 -21.6051 -21.3692 -21.1879 -20.7158 -20.5765
   -15.3741 -14.4613 -12.9776 -11.8760 -11.1833 -10.2157  -9.3295  -8.9751
    -8.5753  -8.3595  -7.8880  -7.6297  -7.5410  -7.1570  -7.0205  -6.9825
    -6.6946  -6.5207  -6.0734  -6.0596  -5.9940  -5.9551  -5.9344  -5.9220
    -5.7935  -5.7575  -5.7214  -5.6944  -5.6429  -5.6069  -5.5877  -5.5806
    -5.5628  -5.5598  -5.3134  -5.2979  -5.2918  -5.2853  -5.2758  -5.2481
    -5.2432  -5.1575  -5.1548  -5.1289  -5.0995  -5.0953  -5.0867  -5.0815
    -5.0706  -5.0678  -4.8862  -4.8790  -4.8286  -4.8226  -4.7790  -4.7569
    -4.7506  -4.6770  -4.6696  -4.6322  -4.6195  -4.5955  -4.5832  -4.5672
    -4.5556  -4.5511  -4.2069  -4.1982  -4.1155  -4.0199  -3.9740  -3.8182
    -3.8162  -3.8054  -3.7773  -3.7564  -3.7485  -3.7134  -3.5866  -3.5808
    -3.5521  -3.5344  -3.5298  -3.5204  -3.5175  -3.5121  -3.5023  -3.4733
    -3.4679  -3.3582  -3.3564  -3.3219  -3.3176  -3.3031  -3.2970  -3.2793
    -3.2739  -3.2284  -3.2121  -3.1965  -3.1046  -3.0950  -3.0883  -3.0798
    -3.0724  -3.0677  -3.0303  -2.8922  -2.8826  -2.8621  -2.8535  -2.7523
    -2.7476  -2.7223  -2.6938  -2.6873  -2.6745  -2.6711  -2.6650  -2.6599
    -2.6402  -2.6161  -2.6127  -2.6026  -2.5538  -2.5226  -2.5184  -2.4792
    -2.3774  -2.3754  -2.3335  -2.3313  -2.3109  -2.3089  -2.2715  -2.2693
    -2.2126  -2.0166  -1.9691  -1.9535  -1.9481  -1.8848  -1.8628  -1.8332
    -1.7970  -1.7427  -1.7379  -1.7286  -1.7196  -1.6795  -1.5516  -1.5257
    -1.4930  -1.4133  -1.4119  -1.3831  -1.3412  -1.3366  -1.3340  -1.3264
    -1.3112  -1.3098  -1.2242  -1.2176  -1.2035  -1.1928  -1.1868  -1.1769
    -1.1432  -1.1406  -1.1006  -1.0847  -1.0603  -0.9787  -0.9666  -0.8362
    -0.8297  -0.8239  -0.8091  -0.7379  -0.7343  -0.6634  -0.5233  -0.5146
    -0.4929  -0.4909  -0.4135

          k = 0.0465-0.0268 0.0000 ( 86504 PWs)   bands (ev):

   -79.2856 -79.2702 -79.2580 -79.2462 -79.2372 -79.2191 -79.2160 -79.2138
   -79.2131 -79.2123 -79.2084 -79.2036 -79.2028 -79.2004 -79.1939 -79.1914
   -79.1887 -79.1871 -79.1851 -79.1816 -79.1814 -79.1800 -79.1770 -79.1761
   -79.1756 -79.1735 -79.1728 -79.1703 -79.1667 -79.1659 -79.1634 -79.1623
   -47.3835 -47.3811 -47.3795 -47.3787 -47.3486 -47.3462 -47.3375 -47.3352
   -47.3338 -47.3335 -47.3229 -47.3195 -47.3017 -47.2990 -47.2788 -47.2751
   -47.2566 -47.2558 -47.2523 -47.2509 -47.2316 -47.2283 -47.2260 -47.2238
   -47.1743 -47.1698 -47.1385 -47.1234 -47.1183 -47.1159 -47.1044 -47.1004
   -47.0684 -47.0646 -47.0496 -47.0466 -47.0442 -47.0436 -47.0191 -47.0046
   -47.0023 -47.0018 -46.9858 -46.9823 -46.9748 -46.9739 -46.9718 -46.9707
   -46.9663 -46.9655 -46.9611 -46.9503 -46.9487 -46.9473 -46.9453 -46.9434
   -46.9269 -46.9261 -46.9116 -46.9090 -46.9084 -46.9070 -46.9034 -46.8994
   -46.8955 -46.8949 -46.8933 -46.8915 -46.8900 -46.8880 -46.8630 -46.8620
   -46.8603 -46.8565 -46.8558 -46.8543 -46.8451 -46.8424 -46.8227 -46.8082
   -46.8036 -46.8006 -46.7990 -46.7917 -46.7865 -46.7859 -46.7753 -46.7725
   -46.7687 -46.7611 -46.7598 -46.7593 -46.7516 -46.7497 -46.7478 -46.7447
   -23.7659 -23.2623 -22.0495 -21.6051 -21.3692 -21.1879 -20.7158 -20.5765
   -15.3741 -14.4614 -12.9775 -11.8759 -11.1834 -10.2157  -9.3299  -8.9744
    -8.5747  -8.3591  -7.8877  -7.6308  -7.5429  -7.1566  -7.0204  -6.6948
    -6.6358  -6.5906  -6.4762  -5.9397  -5.8638  -5.8507  -5.7998  -5.7572
    -5.7301  -5.7157  -5.7023  -5.6306  -5.6236  -5.6212  -5.6207  -5.5854
    -5.4955  -5.4905  -5.3417  -5.3412  -5.3393  -5.3383  -5.2690  -5.2647
    -5.2639  -5.2630  -5.1470  -5.1382  -5.1342  -5.1322  -5.1125  -5.0845
    -5.0799  -5.0604  -5.0585  -5.0076  -5.0001  -4.9208  -4.9191  -4.9163
    -4.9144  -4.7151  -4.7080  -4.7073  -4.7027  -4.6253  -4.6167  -4.5870
    -4.5582  -4.5480  -4.1432  -4.1197  -4.1009  -4.0192  -3.8779  -3.8688
    -3.7767  -3.7135  -3.7117  -3.7074  -3.7029  -3.6923  -3.6854  -3.6772
    -3.6630  -3.5459  -3.5423  -3.5352  -3.5334  -3.5318  -3.5295  -3.5270
    -3.5163  -3.5061  -3.4730  -3.4649  -3.3862  -3.3801  -3.3514  -3.3151
    -3.3102  -3.2607  -3.2519  -3.2453  -3.2405  -2.9226  -2.9114  -2.9073
    -2.9016  -2.8982  -2.8942  -2.8917  -2.8867  -2.8859  -2.8826  -2.8811
    -2.8645  -2.7770  -2.7719  -2.7474  -2.7454  -2.6830  -2.6470  -2.6345
    -2.5415  -2.5145  -2.4795  -2.4739  -2.4093  -2.4017  -2.3997  -2.3984
    -2.3744  -2.3705  -2.3089  -2.2733  -2.1920  -2.0788  -2.0721  -2.0707
    -2.0667  -2.0468  -2.0380  -1.9636  -1.9579  -1.8955  -1.8305  -1.8135
    -1.6589  -1.6573  -1.6510  -1.6491  -1.5846  -1.5462  -1.5415  -1.5338
    -1.5238  -1.5177  -1.5087  -1.4938  -1.4809  -1.4742  -1.4215  -1.4082
    -1.4029  -1.2066  -1.2047  -0.9930  -0.9893  -0.9863  -0.9818  -0.9353
    -0.9335  -0.9280  -0.9246  -0.8052  -0.8008  -0.7993  -0.7987  -0.7790
    -0.7738  -0.7708  -0.7665  -0.6614  -0.6560  -0.5795  -0.5729  -0.5519
    -0.5270  -0.5211  -0.5161

          k =-0.0465-0.0268 0.0000 ( 86504 PWs)   bands (ev):

   -79.2857 -79.2698 -79.2585 -79.2461 -79.2371 -79.2190 -79.2153 -79.2151
   -79.2138 -79.2110 -79.2090 -79.2030 -79.2021 -79.2009 -79.1939 -79.1911
   -79.1890 -79.1879 -79.1849 -79.1824 -79.1818 -79.1787 -79.1767 -79.1761
   -79.1750 -79.1740 -79.1726 -79.1702 -79.1677 -79.1653 -79.1635 -79.1622
   -47.3828 -47.3814 -47.3788 -47.3783 -47.3509 -47.3461 -47.3372 -47.3357
   -47.3334 -47.3332 -47.3239 -47.3194 -47.3018 -47.2985 -47.2787 -47.2749
   -47.2566 -47.2549 -47.2525 -47.2507 -47.2336 -47.2276 -47.2265 -47.2235
   -47.1736 -47.1700 -47.1383 -47.1230 -47.1189 -47.1157 -47.1038 -47.1003
   -47.0680 -47.0646 -47.0511 -47.0468 -47.0443 -47.0431 -47.0172 -47.0043
   -47.0029 -47.0016 -46.9874 -46.9820 -46.9744 -46.9737 -46.9723 -46.9708
   -46.9668 -46.9651 -46.9616 -46.9503 -46.9490 -46.9471 -46.9452 -46.9428
   -46.9274 -46.9260 -46.9124 -46.9087 -46.9081 -46.9072 -46.9035 -46.8990
   -46.8954 -46.8946 -46.8936 -46.8919 -46.8901 -46.8877 -46.8630 -46.8615
   -46.8602 -46.8569 -46.8553 -46.8547 -46.8452 -46.8424 -46.8233 -46.8088
   -46.8034 -46.8006 -46.7976 -46.7916 -46.7865 -46.7857 -46.7769 -46.7729
   -46.7678 -46.7621 -46.7607 -46.7569 -46.7514 -46.7494 -46.7486 -46.7448
   -23.7659 -23.2623 -22.0495 -21.6051 -21.3692 -21.1879 -20.7158 -20.5765
   -15.3741 -14.4613 -12.9776 -11.8761 -11.1832 -10.2156  -9.3295  -8.9750
    -8.5753  -8.3598  -7.8878  -7.6298  -7.5408  -7.1567  -7.0202  -6.6953
    -6.6360  -6.5927  -6.4729  -5.9409  -5.8543  -5.8502  -5.8058  -5.7612
    -5.7322  -5.7157  -5.7086  -5.6292  -5.6237  -5.6213  -5.6205  -5.5782
    -5.4935  -5.4898  -5.3426  -5.3415  -5.3389  -5.3384  -5.2706  -5.2678
    -5.2656  -5.2633  -5.1524  -5.1425  -5.1353  -5.1236  -5.1102  -5.0829
    -5.0790  -5.0603  -5.0583  -5.0079  -5.0001  -4.9206  -4.9172  -4.9165
    -4.9151  -4.7157  -4.7125  -4.7069  -4.7030  -4.6285  -4.6157  -4.5705
    -4.5630  -4.5570  -4.1468  -4.1192  -4.0949  -4.0120  -3.8771  -3.8728
    -3.7747  -3.7131  -3.7117  -3.7091  -3.7038  -3.6919  -3.6823  -3.6779
    -3.6591  -3.5442  -3.5402  -3.5386  -3.5343  -3.5322  -3.5289  -3.5265
    -3.5196  -3.5170  -3.4729  -3.4697  -3.3869  -3.3750  -3.3507  -3.3162
    -3.3094  -3.2586  -3.2467  -3.2444  -3.2411  -2.9135  -2.9087  -2.9072
    -2.9020  -2.8969  -2.8953  -2.8928  -2.8893  -2.8852  -2.8815  -2.8793
    -2.8659  -2.7770  -2.7717  -2.7500  -2.7410  -2.6851  -2.6558  -2.6386
    -2.5528  -2.5160  -2.4770  -2.4738  -2.4054  -2.4003  -2.3998  -2.3966
    -2.3741  -2.3709  -2.3158  -2.2570  -2.1921  -2.0778  -2.0737  -2.0713
    -2.0707  -2.0438  -2.0348  -1.9608  -1.9585  -1.8983  -1.8268  -1.8145
    -1.6632  -1.6576  -1.6528  -1.6506  -1.5980  -1.5504  -1.5375  -1.5335
    -1.5273  -1.5201  -1.5158  -1.4809  -1.4761  -1.4741  -1.4186  -1.4094
    -1.3936  -1.2102  -1.2060  -0.9971  -0.9884  -0.9858  -0.9828  -0.9360
    -0.9332  -0.9282  -0.9249  -0.8055  -0.8011  -0.7995  -0.7942  -0.7796
    -0.7735  -0.7718  -0.7664  -0.6644  -0.6538  -0.5806  -0.5714  -0.5523
    -0.5281  -0.5213  -0.5155

          k =-0.0232 0.0403 0.0000 ( 86511 PWs)   bands (ev):

   -79.2858 -79.2686 -79.2608 -79.2467 -79.2295 -79.2266 -79.2187 -79.2144
   -79.2123 -79.2109 -79.2081 -79.2022 -79.1999 -79.1983 -79.1951 -79.1933
   -79.1893 -79.1880 -79.1843 -79.1827 -79.1816 -79.1795 -79.1778 -79.1761
   -79.1749 -79.1732 -79.1722 -79.1697 -79.1673 -79.1654 -79.1638 -79.1624
   -47.3974 -47.3766 -47.3757 -47.3626 -47.3611 -47.3474 -47.3354 -47.3308
   -47.3282 -47.3274 -47.3156 -47.3150 -47.3023 -47.3013 -47.2912 -47.2882
   -47.2838 -47.2623 -47.2616 -47.2533 -47.2276 -47.2158 -47.2130 -47.1707
   -47.1651 -47.1555 -47.1489 -47.1412 -47.1335 -47.1194 -47.1138 -47.1066
   -47.1048 -47.0533 -47.0348 -47.0344 -47.0270 -47.0250 -47.0200 -47.0078
   -47.0010 -46.9982 -46.9951 -46.9869 -46.9847 -46.9823 -46.9792 -46.9732
   -46.9651 -46.9557 -46.9548 -46.9533 -46.9426 -46.9375 -46.9336 -46.9290
   -46.9275 -46.9265 -46.9196 -46.9192 -46.9159 -46.9112 -46.9066 -46.9056
   -46.9035 -46.8925 -46.8913 -46.8876 -46.8805 -46.8800 -46.8762 -46.8750
   -46.8694 -46.8690 -46.8613 -46.8483 -46.8337 -46.8246 -46.8182 -46.8166
   -46.8085 -46.7996 -46.7988 -46.7959 -46.7859 -46.7800 -46.7782 -46.7738
   -46.7689 -46.7658 -46.7609 -46.7566 -46.7518 -46.7490 -46.7475 -46.7446
   -23.7659 -23.2623 -22.0495 -21.6051 -21.3692 -21.1879 -20.7158 -20.5765
   -15.3740 -14.4614 -12.9775 -11.8759 -11.1834 -10.2156  -9.3299  -8.9743
    -8.5747  -8.3593  -7.8875  -7.6310  -7.5427  -7.1563  -7.0204  -6.7251
    -6.6948  -6.5224  -6.2487  -6.2289  -5.9354  -5.8422  -5.8328  -5.8224
    -5.7489  -5.6732  -5.6680  -5.6661  -5.5999  -5.4896  -5.4865  -5.4803
    -5.4767  -5.4199  -5.4133  -5.3778  -5.3727  -5.3193  -5.3118  -5.3065
    -5.2927  -5.2884  -5.1934  -5.1709  -5.1609  -5.1403  -5.1246  -5.1174
    -5.1135  -4.9710  -4.9662  -4.9622  -4.9556  -4.9513  -4.9235  -4.9160
    -4.9139  -4.9115  -4.7856  -4.7792  -4.6572  -4.5784  -4.5183  -4.4326
    -4.4033  -4.3975  -4.3950  -4.1205  -4.0177  -3.8598  -3.8554  -3.8424
    -3.8385  -3.7781  -3.7416  -3.7384  -3.7301  -3.7230  -3.6802  -3.6715
    -3.6362  -3.6329  -3.6201  -3.6042  -3.5927  -3.5876  -3.5832  -3.5207
    -3.4991  -3.4861  -3.4623  -3.4434  -3.4126  -3.4009  -3.3971  -3.3875
    -3.3578  -3.2992  -3.2614  -3.2300  -3.2219  -3.1066  -3.0916  -3.0191
    -2.9904  -2.9427  -2.9401  -2.8460  -2.8239  -2.8175  -2.7211  -2.6928
    -2.6681  -2.6242  -2.6172  -2.5942  -2.5894  -2.5790  -2.5700  -2.5524
    -2.5477  -2.5378  -2.5253  -2.5111  -2.4314  -2.4283  -2.4161  -2.4095
    -2.4048  -2.3675  -2.3294  -2.3267  -2.2232  -2.1601  -2.1471  -2.1432
    -1.9955  -1.9906  -1.9628  -1.9547  -1.9242  -1.8903  -1.8684  -1.8380
    -1.8166  -1.8074  -1.6542  -1.6235  -1.5834  -1.5504  -1.5440  -1.5032
    -1.4639  -1.4392  -1.4177  -1.3912  -1.3807  -1.3626  -1.3587  -1.3409
    -1.3319  -1.2930  -1.2728  -1.1922  -1.1856  -1.1647  -1.0994  -0.9411
    -0.9264  -0.9225  -0.8554  -0.8531  -0.8367  -0.7932  -0.7874  -0.7798
    -0.7744  -0.7585  -0.7443  -0.7387  -0.6541  -0.6461  -0.6050  -0.6004
    -0.5947  -0.5777  -0.5603

          k = 0.0465-0.0000 0.0000 ( 86511 PWs)   bands (ev):

   -79.2858 -79.2689 -79.2604 -79.2464 -79.2313 -79.2259 -79.2185 -79.2145
   -79.2115 -79.2096 -79.2086 -79.2025 -79.2000 -79.1984 -79.1958 -79.1924
   -79.1917 -79.1875 -79.1841 -79.1827 -79.1805 -79.1792 -79.1780 -79.1752
   -79.1748 -79.1734 -79.1723 -79.1709 -79.1673 -79.1656 -79.1634 -79.1623
   -47.3972 -47.3769 -47.3759 -47.3624 -47.3615 -47.3475 -47.3351 -47.3306
   -47.3286 -47.3270 -47.3153 -47.3147 -47.3022 -47.3015 -47.2920 -47.2883
   -47.2837 -47.2623 -47.2613 -47.2532 -47.2278 -47.2158 -47.2128 -47.1687
   -47.1661 -47.1549 -47.1510 -47.1411 -47.1332 -47.1199 -47.1135 -47.1067
   -47.1049 -47.0534 -47.0352 -47.0343 -47.0277 -47.0233 -47.0190 -47.0080
   -47.0013 -46.9982 -46.9962 -46.9861 -46.9847 -46.9824 -46.9789 -46.9740
   -46.9658 -46.9559 -46.9548 -46.9534 -46.9410 -46.9361 -46.9347 -46.9293
   -46.9272 -46.9266 -46.9196 -46.9187 -46.9158 -46.9127 -46.9067 -46.9057
   -46.9038 -46.8926 -46.8908 -46.8873 -46.8802 -46.8790 -46.8775 -46.8750
   -46.8698 -46.8682 -46.8614 -46.8470 -46.8339 -46.8265 -46.8180 -46.8168
   -46.8073 -46.7997 -46.7992 -46.7955 -46.7853 -46.7808 -46.7781 -46.7742
   -46.7686 -46.7664 -46.7613 -46.7547 -46.7519 -46.7492 -46.7481 -46.7447
   -23.7660 -23.2623 -22.0495 -21.6051 -21.3692 -21.1879 -20.7158 -20.5765
   -15.3741 -14.4614 -12.9775 -11.8760 -11.1833 -10.2156  -9.3297  -8.9747
    -8.5750  -8.3594  -7.8878  -7.6303  -7.5419  -7.1566  -7.0203  -6.7270
    -6.6944  -6.5200  -6.2491  -6.2292  -5.9360  -5.8407  -5.8323  -5.8212
    -5.7579  -5.6719  -5.6678  -5.6652  -5.5991  -5.4888  -5.4865  -5.4791
    -5.4750  -5.4206  -5.4118  -5.3755  -5.3745  -5.3187  -5.3120  -5.3085
    -5.2934  -5.2897  -5.1910  -5.1689  -5.1625  -5.1415  -5.1235  -5.1187
    -5.1137  -4.9688  -4.9643  -4.9608  -4.9553  -4.9524  -4.9247  -4.9207
    -4.9136  -4.9119  -4.7845  -4.7801  -4.6569  -4.5801  -4.5177  -4.4337
    -4.4018  -4.3975  -4.3932  -4.1236  -4.0189  -3.8600  -3.8553  -3.8413
    -3.8311  -3.7776  -3.7414  -3.7371  -3.7314  -3.7241  -3.6797  -3.6732
    -3.6345  -3.6333  -3.6258  -3.6053  -3.5938  -3.5875  -3.5778  -3.5218
    -3.4953  -3.4884  -3.4666  -3.4411  -3.4125  -3.4006  -3.3965  -3.3879
    -3.3584  -3.2989  -3.2615  -3.2288  -3.2231  -3.1028  -3.0907  -3.0198
    -2.9904  -2.9449  -2.9388  -2.8456  -2.8232  -2.8140  -2.7270  -2.6936
    -2.6710  -2.6220  -2.6168  -2.6040  -2.5879  -2.5737  -2.5703  -2.5558
    -2.5451  -2.5364  -2.5228  -2.5106  -2.4309  -2.4276  -2.4125  -2.4112
    -2.4019  -2.3746  -2.3287  -2.3261  -2.2273  -2.1592  -2.1467  -2.1410
    -1.9993  -1.9867  -1.9595  -1.9551  -1.9214  -1.8968  -1.8642  -1.8466
    -1.8206  -1.7987  -1.6493  -1.6313  -1.5817  -1.5546  -1.5436  -1.5038
    -1.4618  -1.4351  -1.4222  -1.3902  -1.3813  -1.3612  -1.3587  -1.3385
    -1.3302  -1.2938  -1.2742  -1.1945  -1.1854  -1.1617  -1.0992  -0.9414
    -0.9270  -0.9218  -0.8563  -0.8525  -0.8367  -0.7970  -0.7905  -0.7792
    -0.7731  -0.7545  -0.7459  -0.7378  -0.6519  -0.6494  -0.6042  -0.6001
    -0.5951  -0.5728  -0.5632

     the Fermi energy is    -0.7684 ev

!    total energy              =  -15381.68234507 Ry
     Harris-Foulkes estimate   =  -15381.68234532 Ry
     estimated scf accuracy    <       0.00000036 Ry

     The total energy is the sum of the following terms:

     one-electron contribution =  -77345.23119226 Ry
     hartree contribution      =   38680.03216747 Ry
     xc contribution           =   -1033.49394701 Ry
     ewald contribution        =   32200.51303676 Ry
     one-center paw contrib.   =   -7883.35840742 Ry
     smearing contrib. (-TS)   =      -0.14400262 Ry

     convergence has been achieved in  62 iterations

     Forces acting on atoms (Ry/au):


     negative rho (up, down):  6.671E-02 0.000E+00
     atom    1 type  1   force =    -0.00014678    0.00133054    0.01248862
     atom    2 type  1   force =     0.00038733   -0.00067163   -0.01384165
     atom    3 type  1   force =    -0.00002993    0.00002987    0.01314970
     atom    4 type  1   force =     0.00003642    0.00028916   -0.01334742
     atom    5 type  1   force =     0.00025480   -0.00042200    0.01343428
     atom    6 type  1   force =     0.00014889    0.00030462   -0.01381751
     atom    7 type  1   force =     0.00011242   -0.00030617    0.01336516
     atom    8 type  1   force =     0.00004635    0.00027316   -0.01319979
     atom    9 type  1   force =    -0.00046239   -0.00022820    0.01335630
     atom   10 type  1   force =     0.00116653   -0.00086115   -0.01755867
     atom   11 type  1   force =    -0.00054344   -0.00001202    0.01369072
     atom   12 type  1   force =    -0.00176211   -0.00236175   -0.01532470
     atom   13 type  1   force =    -0.00030219   -0.00042677    0.01403477
     atom   14 type  1   force =    -0.00359873   -0.00055986   -0.01600620
     atom   15 type  1   force =    -0.00006142   -0.00006086    0.01367799
     atom   16 type  1   force =    -0.00023500    0.00020302   -0.01312822
     atom   17 type  1   force =     0.00071364   -0.00042947    0.01314573
     atom   18 type  1   force =    -0.00075531   -0.00016163   -0.01362726
     atom   19 type  1   force =     0.00006635    0.00125173    0.01240792
     atom   20 type  1   force =     0.00184216   -0.00329153   -0.01587771
     atom   21 type  1   force =    -0.00018924   -0.00044010    0.01086722
     atom   22 type  1   force =    -0.00822605   -0.00741408   -0.03049722
     atom   23 type  1   force =     0.00034464    0.00008931    0.01348401
     atom   24 type  1   force =    -0.00132168    0.00330792   -0.01287339
     atom   25 type  1   force =     0.00007017    0.00039644    0.01372849
     atom   26 type  1   force =     0.00006325   -0.00008100   -0.01333137
     atom   27 type  1   force =     0.00054405    0.00002358    0.01407809
     atom   28 type  1   force =    -0.00009666    0.00020340   -0.01329989
     atom   29 type  1   force =    -0.00010266   -0.00024415    0.01162107
     atom   30 type  1   force =     0.00501424   -0.00024531   -0.01652583
     atom   31 type  1   force =    -0.00028318   -0.00095271    0.01329628
     atom   32 type  1   force =     0.00208304    0.00378023   -0.01456894
     atom   33 type  2   force =    -0.00336757   -0.01945334   -0.01307682
     atom   34 type  2   force =     0.01360564   -0.00363888    0.00744529
     atom   35 type  2   force =    -0.01053197    0.00986177    0.01137220
     atom   36 type  2   force =    -0.00127164   -0.00843132    0.02043693
     atom   37 type  2   force =    -0.02605816    0.02712946   -0.00213881
     atom   38 type  2   force =    -0.00074730   -0.04539537    0.02596691
     atom   39 type  2   force =    -0.02941020    0.02366759   -0.00848832
     atom   40 type  2   force =     0.00370549   -0.03533993   -0.00612248
     atom   41 type  3   force =     0.02749283    0.00286180    0.02341535
     atom   42 type  3   force =    -0.00409560    0.02688472    0.00345222
     atom   43 type  3   force =    -0.00043884   -0.02836315    0.02508640
     atom   44 type  3   force =    -0.03740260   -0.00432910    0.00595787
     atom   45 type  3   force =     0.06015256   -0.04082748   -0.01299139
     atom   46 type  3   force =     0.00684426    0.04762033   -0.00320684
     atom   47 type  4   force =    -0.02390758    0.00700272   -0.00827273
     atom   48 type  4   force =     0.00043652   -0.00250982   -0.00462113
     atom   49 type  4   force =    -0.00172039    0.01723426   -0.01125946
     atom   50 type  4   force =     0.00657924   -0.01534909   -0.01806049
     atom   51 type  4   force =    -0.00157409    0.00423597   -0.00786568
     atom   52 type  4   force =    -0.00656396    0.00650644   -0.00222020
     atom   53 type  4   force =     0.00202811    0.00053968    0.00216724
     atom   54 type  4   force =     0.00348246    0.00712146    0.00615279
     atom   55 type  4   force =     0.01007431   -0.00910509    0.00437830
     atom   56 type  4   force =     0.01791097    0.03976379   -0.00050770

     Total force =     0.180364     Total SCF correction =     0.002747
 !ASE

     Writing output data file calc.save
     Check: negative starting charge=   -0.057953
     NEW-OLD atomic charge density approx. for the potential

     Check: negative/imaginary core charge=   -0.000001    0.000000
     Check: negative starting charge=   -0.057924

     negative rho (up, down):  6.681E-02 0.000E+00

     total cpu time spent up to now is    15154.6 secs

     per-process dynamical memory:   666.8 Mb

     Self-consistent Calculation

     iteration #  1     ecut=    40.42 Ry     beta=0.07
     Davidson diagonalization with overlap
     c_bands:  5 eigenvalues not converged
     c_bands:  2 eigenvalues not converged
     ethr =  7.79E-11,  avg # of iterations = 23.3

     negative rho (up, down):  6.641E-02 0.000E+00

     total cpu time spent up to now is    16171.5 secs

     total energy              =  -15381.11916073 Ry
     Harris-Foulkes estimate   =  -15381.13069077 Ry
     estimated scf accuracy    <       0.23574877 Ry

     iteration #  2     ecut=    40.42 Ry     beta=0.07
     Davidson diagonalization with overlap
     ethr =  3.77E-05,  avg # of iterations =  1.0

     negative rho (up, down):  6.428E-02 0.000E+00

     total cpu time spent up to now is    16389.7 secs

     total energy              =  -15381.01866412 Ry
     Harris-Foulkes estimate   =  -15381.11933248 Ry
     estimated scf accuracy    <       0.20640879 Ry

     iteration #  3     ecut=    40.42 Ry     beta=0.07
     Davidson diagonalization with overlap
     ethr =  3.30E-05,  avg # of iterations =  3.0

     negative rho (up, down):  6.435E-02 0.000E+00

     total cpu time spent up to now is    16638.4 secs

     total energy              =  -15381.05004695 Ry
     Harris-Foulkes estimate   =  -15381.04880362 Ry
     estimated scf accuracy    <       0.04096785 Ry

     iteration #  4     ecut=    40.42 Ry     beta=0.07
     Davidson diagonalization with overlap
     ethr =  6.54E-06,  avg # of iterations =  2.0

     negative rho (up, down):  6.233E-02 0.000E+00

     total cpu time spent up to now is    16850.2 secs

     total energy              =  -15381.04041084 Ry
     Harris-Foulkes estimate   =  -15381.05041189 Ry
     estimated scf accuracy    <       0.05007169 Ry

     iteration #  5     ecut=    40.42 Ry     beta=0.07
     Davidson diagonalization with overlap
     ethr =  6.54E-06,  avg # of iterations =  3.0

     negative rho (up, down):  6.216E-02 0.000E+00

     total cpu time spent up to now is    17083.4 secs

     total energy              =  -15381.04268671 Ry
     Harris-Foulkes estimate   =  -15381.04272164 Ry
     estimated scf accuracy    <       0.01746519 Ry

     iteration #  6     ecut=    40.42 Ry     beta=0.07
     Davidson diagonalization with overlap
     ethr =  2.79E-06,  avg # of iterations =  1.0

     negative rho (up, down):  6.044E-02 0.000E+00

     total cpu time spent up to now is    17300.6 secs

     total energy              =  -15381.03971563 Ry
     Harris-Foulkes estimate   =  -15381.04275683 Ry
     estimated scf accuracy    <       0.01687247 Ry

     iteration #  7     ecut=    40.42 Ry     beta=0.07
     Davidson diagonalization with overlap
     ethr =  2.70E-06,  avg # of iterations =  3.0

     negative rho (up, down):  5.983E-02 0.000E+00

     total cpu time spent up to now is    17537.0 secs

     total energy              =  -15381.04007265 Ry
     Harris-Foulkes estimate   =  -15381.04055527 Ry
     estimated scf accuracy    <       0.00811405 Ry

     iteration #  8     ecut=    40.42 Ry     beta=0.07
     Davidson diagonalization with overlap
     ethr =  1.30E-06,  avg # of iterations =  2.7

     negative rho (up, down):  5.842E-02 0.000E+00

     total cpu time spent up to now is    17767.2 secs

     total energy              =  -15381.03911474 Ry
     Harris-Foulkes estimate   =  -15381.04029546 Ry
     estimated scf accuracy    <       0.00699312 Ry

[...]
   -46.8229 -46.8152 -46.8116 -46.8084 -46.8055 -46.8040 -46.8010 -46.7977
   -23.9597 -23.2987 -22.1988 -21.7553 -21.4522 -21.2970 -21.0887 -20.5057
   -15.3202 -14.2849 -12.6943 -11.5920 -11.1141  -9.8886  -9.3768  -8.6653
    -8.4703  -8.2401  -8.1419  -7.6299  -7.5150  -7.0985  -7.0303  -6.9124
    -6.5773  -6.5141  -6.1274  -6.1093  -6.1032  -6.0444  -5.9851  -5.9842
    -5.8147  -5.8086  -5.7467  -5.6979  -5.6750  -5.6396  -5.6377  -5.6163
    -5.6139  -5.4904  -5.3628  -5.3476  -5.3432  -5.3417  -5.3324  -5.3010
    -5.2998  -5.2543  -5.2075  -5.2063  -5.1507  -5.1490  -5.1364  -5.1339
    -5.1220  -5.1207  -4.9350  -4.9317  -4.8799  -4.8750  -4.8316  -4.8057
    -4.8029  -4.7275  -4.7215  -4.6833  -4.6720  -4.6635  -4.6371  -4.6312
    -4.6086  -4.6062  -4.2631  -4.2502  -4.1495  -4.0551  -4.0237  -3.9080
    -3.8686  -3.8663  -3.8626  -3.8079  -3.8064  -3.7656  -3.6457  -3.6337
    -3.6255  -3.6058  -3.5838  -3.5763  -3.5707  -3.5687  -3.5573  -3.5333
    -3.5213  -3.5091  -3.4081  -3.3727  -3.3703  -3.3506  -3.3473  -3.3304
    -3.3265  -3.2794  -3.2632  -3.2474  -3.1497  -3.1463  -3.1380  -3.1315
    -3.1263  -3.1201  -3.0814  -3.0174  -2.9381  -2.9329  -2.9174  -2.9017
    -2.8028  -2.7936  -2.7856  -2.7418  -2.7344  -2.7250  -2.7236  -2.7129
    -2.7099  -2.6809  -2.6663  -2.6639  -2.6429  -2.6028  -2.5719  -2.4340
    -2.4278  -2.4265  -2.3871  -2.3829  -2.3635  -2.3601  -2.3434  -2.3215
    -2.3205  -2.0590  -2.0086  -2.0049  -1.9795  -1.9349  -1.9157  -1.8793
    -1.8248  -1.7941  -1.7809  -1.7739  -1.7680  -1.7571  -1.5761  -1.5516
    -1.5145  -1.4632  -1.4620  -1.4338  -1.3941  -1.3867  -1.3855  -1.3819
    -1.3639  -1.3621  -1.2716  -1.2693  -1.2543  -1.2422  -1.2385  -1.2318
    -1.1938  -1.1914  -1.1524  -1.1405  -1.1242  -1.0319  -1.0247  -0.8915
    -0.8805  -0.8793  -0.8604  -0.7867  -0.7847  -0.7132  -0.5707  -0.5665
    -0.5438  -0.5421  -0.4615

          k = 0.0465-0.0268 0.0000 ( 86504 PWs)   bands (ev):

   -79.3240 -79.3219 -79.3026 -79.2991 -79.2773 -79.2711 -79.2690 -79.2666
   -79.2661 -79.2653 -79.2591 -79.2564 -79.2557 -79.2538 -79.2441 -79.2428
   -79.2414 -79.2404 -79.2377 -79.2346 -79.2344 -79.2332 -79.2299 -79.2287
   -79.2281 -79.2268 -79.2244 -79.2230 -79.2224 -79.2206 -79.2186 -79.2162
   -47.4329 -47.4324 -47.4313 -47.4311 -47.3992 -47.3982 -47.3875 -47.3868
   -47.3859 -47.3857 -47.3738 -47.3723 -47.3524 -47.3511 -47.3292 -47.3278
   -47.3068 -47.3063 -47.3049 -47.3039 -47.2808 -47.2794 -47.2786 -47.2773
   -47.2246 -47.2222 -47.1781 -47.1749 -47.1696 -47.1678 -47.1551 -47.1533
   -47.1194 -47.1173 -47.0994 -47.0980 -47.0973 -47.0962 -47.0603 -47.0565
   -47.0551 -47.0547 -47.0333 -47.0327 -47.0258 -47.0246 -47.0220 -47.0215
   -47.0198 -47.0190 -47.0057 -47.0021 -47.0004 -47.0001 -46.9986 -46.9972
   -46.9789 -46.9782 -46.9615 -46.9600 -46.9595 -46.9587 -46.9529 -46.9504
   -46.9491 -46.9474 -46.9457 -46.9447 -46.9424 -46.9409 -46.9146 -46.9130
   -46.9109 -46.9087 -46.9082 -46.9072 -46.8968 -46.8955 -46.8670 -46.8617
   -46.8551 -46.8533 -46.8463 -46.8427 -46.8408 -46.8389 -46.8277 -46.8257
   -46.8196 -46.8141 -46.8134 -46.8124 -46.8043 -46.8029 -46.8014 -46.7989
   -23.9597 -23.2987 -22.1988 -21.7553 -21.4522 -21.2970 -21.0887 -20.5057
   -15.3201 -14.2851 -12.6942 -11.5918 -11.1143  -9.8884  -9.3772  -8.6642
    -8.4694  -8.2395  -8.1421  -7.6325  -7.5164  -7.0959  -6.9133  -6.6632
    -6.6429  -6.5770  -6.4938  -6.1017  -5.9046  -5.9029  -5.8184  -5.8107
    -5.7672  -5.7639  -5.6830  -5.6747  -5.6731  -5.6729  -5.6653  -5.5524
    -5.5436  -5.4848  -5.3920  -5.3916  -5.3912  -5.3906  -5.3228  -5.3170
    -5.3166  -5.3162  -5.2620  -5.1899  -5.1863  -5.1853  -5.1807  -5.1366
    -5.1349  -5.1115  -5.1108  -5.0548  -5.0526  -4.9695  -4.9689  -4.9680
    -4.9669  -4.7684  -4.7612  -4.7590  -4.7574  -4.6720  -4.6706  -4.6627
    -4.6135  -4.6092  -4.1918  -4.1701  -4.1399  -4.0515  -3.9361  -3.9235
    -3.8981  -3.7680  -3.7629  -3.7594  -3.7588  -3.7412  -3.7368  -3.7279
    -3.7197  -3.6329  -3.5930  -3.5911  -3.5852  -3.5830  -3.5811  -3.5797
    -3.5781  -3.5698  -3.5399  -3.5200  -3.5138  -3.4284  -3.4269  -3.3652
    -3.3617  -3.3049  -3.3004  -3.2986  -3.2943  -3.0217  -2.9622  -2.9607
    -2.9592  -2.9489  -2.9482  -2.9454  -2.9449  -2.9371  -2.9354  -2.9330
    -2.9328  -2.9239  -2.8264  -2.8242  -2.7962  -2.7931  -2.7405  -2.6961
    -2.6910  -2.5286  -2.5259  -2.4794  -2.4539  -2.4523  -2.4509  -2.4498
    -2.4362  -2.4249  -2.3529  -2.3360  -2.2946  -2.1282  -2.1235  -2.1210
    -2.1199  -2.0997  -2.0917  -2.0120  -2.0101  -1.9100  -1.8810  -1.8170
    -1.7100  -1.7075  -1.7027  -1.7019  -1.5999  -1.5967  -1.5899  -1.5768
    -1.5739  -1.5669  -1.5579  -1.5286  -1.5262  -1.5168  -1.5061  -1.4602
    -1.4588  -1.2596  -1.2579  -1.0405  -1.0381  -1.0376  -1.0348  -0.9830
    -0.9824  -0.9792  -0.9780  -0.8573  -0.8527  -0.8508  -0.8507  -0.8314
    -0.8273  -0.8207  -0.8182  -0.7117  -0.7089  -0.6310  -0.6244  -0.6007
    -0.5800  -0.5698  -0.5676

          k =-0.0465-0.0268 0.0000 ( 86504 PWs)   bands (ev):

   -79.3242 -79.3217 -79.3027 -79.2989 -79.2776 -79.2707 -79.2685 -79.2678
   -79.2668 -79.2639 -79.2596 -79.2565 -79.2551 -79.2538 -79.2450 -79.2427
   -79.2412 -79.2398 -79.2376 -79.2355 -79.2348 -79.2315 -79.2299 -79.2293
   -79.2287 -79.2269 -79.2244 -79.2233 -79.2214 -79.2206 -79.2189 -79.2162
   -47.4332 -47.4320 -47.4312 -47.4308 -47.3998 -47.3982 -47.3880 -47.3865
   -47.3858 -47.3857 -47.3743 -47.3722 -47.3524 -47.3509 -47.3292 -47.3275
   -47.3071 -47.3057 -47.3049 -47.3037 -47.2820 -47.2792 -47.2788 -47.2768
   -47.2244 -47.2222 -47.1780 -47.1747 -47.1700 -47.1676 -47.1551 -47.1532
   -47.1193 -47.1172 -47.1006 -47.0985 -47.0965 -47.0959 -47.0596 -47.0563
   -47.0558 -47.0539 -47.0336 -47.0328 -47.0254 -47.0244 -47.0228 -47.0220
   -47.0194 -47.0185 -47.0066 -47.0018 -47.0007 -46.9997 -46.9983 -46.9977
   -46.9790 -46.9781 -46.9624 -46.9602 -46.9596 -46.9581 -46.9536 -46.9504
   -46.9477 -46.9470 -46.9458 -46.9445 -46.9423 -46.9410 -46.9144 -46.9132
   -46.9115 -46.9088 -46.9079 -46.9076 -46.8969 -46.8953 -46.8665 -46.8618
   -46.8547 -46.8535 -46.8472 -46.8430 -46.8394 -46.8390 -46.8287 -46.8253
   -46.8190 -46.8152 -46.8146 -46.8099 -46.8044 -46.8029 -46.8021 -46.7987
   -23.9597 -23.2987 -22.1988 -21.7553 -21.4522 -21.2970 -21.0887 -20.5057
   -15.3202 -14.2850 -12.6943 -11.5921 -11.1141  -9.8885  -9.3768  -8.6651
    -8.4702  -8.2403  -8.1418  -7.6300  -7.5148  -7.0958  -6.9122  -6.6663
    -6.6441  -6.5769  -6.4897  -6.1071  -5.9041  -5.9026  -5.8189  -5.8117
    -5.7668  -5.7636  -5.6866  -5.6745  -5.6734  -5.6731  -5.6606  -5.5450
    -5.5443  -5.4890  -5.3931  -5.3914  -5.3913  -5.3907  -5.3222  -5.3185
    -5.3170  -5.3166  -5.2608  -5.1902  -5.1879  -5.1849  -5.1776  -5.1381
    -5.1350  -5.1120  -5.1106  -5.0550  -5.0524  -4.9696  -4.9691  -4.9677
    -4.9671  -4.7665  -4.7618  -4.7589  -4.7582  -4.6783  -4.6683  -4.6583
    -4.6119  -4.6096  -4.1949  -4.1700  -4.1397  -4.0515  -3.9365  -3.9200
    -3.8949  -3.7627  -3.7614  -3.7609  -3.7572  -3.7456  -3.7399  -3.7290
    -3.7220  -3.6327  -3.5925  -3.5884  -3.5870  -3.5838  -3.5830  -3.5797
    -3.5785  -3.5679  -3.5321  -3.5237  -3.5156  -3.4289  -3.4260  -3.3667
    -3.3629  -3.3067  -3.3002  -3.2979  -3.2947  -3.0220  -2.9610  -2.9592
    -2.9502  -2.9486  -2.9472  -2.9450  -2.9449  -2.9415  -2.9360  -2.9336
    -2.9324  -2.9188  -2.8263  -2.8241  -2.7999  -2.7921  -2.7579  -2.6945
    -2.6908  -2.5279  -2.5260  -2.4717  -2.4534  -2.4515  -2.4511  -2.4495
    -2.4299  -2.4223  -2.3878  -2.3150  -2.2925  -2.1273  -2.1248  -2.1233
    -2.1228  -2.0948  -2.0881  -2.0115  -2.0100  -1.9117  -1.8782  -1.8261
    -1.7097  -1.7086  -1.7046  -1.7018  -1.6083  -1.5884  -1.5882  -1.5788
    -1.5762  -1.5684  -1.5579  -1.5285  -1.5263  -1.5123  -1.5043  -1.4599
    -1.4581  -1.2618  -1.2585  -1.0409  -1.0377  -1.0368  -1.0353  -0.9832
    -0.9823  -0.9799  -0.9783  -0.8568  -0.8531  -0.8516  -0.8484  -0.8319
    -0.8264  -0.8204  -0.8184  -0.7129  -0.7061  -0.6321  -0.6237  -0.5999
    -0.5817  -0.5705  -0.5678

          k =-0.0232 0.0403 0.0000 ( 86511 PWs)   bands (ev):

   -79.3261 -79.3153 -79.3129 -79.2881 -79.2821 -79.2749 -79.2703 -79.2664
   -79.2645 -79.2629 -79.2621 -79.2539 -79.2517 -79.2507 -79.2483 -79.2465
   -79.2424 -79.2393 -79.2364 -79.2352 -79.2346 -79.2322 -79.2312 -79.2284
   -79.2272 -79.2259 -79.2251 -79.2234 -79.2221 -79.2203 -79.2187 -79.2164
   -47.4486 -47.4278 -47.4271 -47.4138 -47.4129 -47.3987 -47.3847 -47.3830
   -47.3801 -47.3788 -47.3672 -47.3666 -47.3538 -47.3531 -47.3422 -47.3407
   -47.3358 -47.3136 -47.3130 -47.3050 -47.2793 -47.2675 -47.2643 -47.2196
   -47.2163 -47.2056 -47.2018 -47.1932 -47.1785 -47.1685 -47.1660 -47.1581
   -47.1572 -47.1048 -47.0858 -47.0852 -47.0769 -47.0759 -47.0684 -47.0555
   -47.0531 -47.0498 -47.0476 -47.0373 -47.0367 -47.0327 -47.0314 -47.0251
   -47.0104 -47.0079 -47.0067 -47.0055 -46.9914 -46.9889 -46.9862 -46.9810
   -46.9794 -46.9788 -46.9710 -46.9708 -46.9670 -46.9647 -46.9582 -46.9573
   -46.9562 -46.9442 -46.9434 -46.9384 -46.9314 -46.9304 -46.9292 -46.9283
   -46.9218 -46.9215 -46.9137 -46.8986 -46.8859 -46.8727 -46.8700 -46.8691
   -46.8560 -46.8520 -46.8514 -46.8469 -46.8375 -46.8323 -46.8300 -46.8272
   -46.8217 -46.8197 -46.8135 -46.8088 -46.8044 -46.8024 -46.8014 -46.7987
   -23.9597 -23.2987 -22.1988 -21.7553 -21.4522 -21.2970 -21.0887 -20.5057
   -15.3201 -14.2851 -12.6942 -11.5919 -11.1144  -9.8883  -9.3772  -8.6640
    -8.4694  -8.2397  -8.1420  -7.6327  -7.5163  -7.0958  -6.9132  -6.7702
    -6.5781  -6.5184  -6.2989  -6.2864  -6.0984  -5.8835  -5.8830  -5.8701
    -5.7247  -5.7205  -5.7190  -5.6753  -5.5404  -5.5386  -5.5348  -5.5302
    -5.4919  -5.4666  -5.4655  -5.4294  -5.4260  -5.3706  -5.3630  -5.3623
    -5.3424  -5.3421  -5.2652  -5.2436  -5.2182  -5.2083  -5.1898  -5.1697
    -5.1687  -5.0228  -5.0195  -5.0108  -5.0086  -5.0043  -4.9737  -4.9718
    -4.9661  -4.9648  -4.8338  -4.8316  -4.7086  -4.6654  -4.5700  -4.4834
    -4.4542  -4.4489  -4.4482  -4.1609  -4.0530  -3.9176  -3.9095  -3.9044
    -3.8893  -3.8819  -3.7919  -3.7891  -3.7855  -3.7744  -3.7315  -3.7252
    -3.6899  -3.6851  -3.6816  -3.6551  -3.6480  -3.6405  -3.6360  -3.6203
    -3.5480  -3.5438  -3.5251  -3.5114  -3.4906  -3.4645  -3.4514  -3.4484
    -3.4387  -3.3529  -3.3133  -3.2788  -3.2751  -3.1561  -3.1456  -3.0692
    -3.0417  -3.0191  -2.9920  -2.9892  -2.8967  -2.8713  -2.8696  -2.7848
    -2.7439  -2.7192  -2.6708  -2.6679  -2.6408  -2.6355  -2.6228  -2.6201
    -2.5966  -2.5890  -2.5871  -2.4941  -2.4814  -2.4791  -2.4679  -2.4604
    -2.4575  -2.4063  -2.3819  -2.3777  -2.3374  -2.2186  -2.1988  -2.1960
    -2.0433  -2.0396  -2.0096  -2.0076  -1.9501  -1.9400  -1.9165  -1.8874
    -1.8749  -1.8192  -1.6929  -1.6761  -1.6327  -1.6034  -1.5542  -1.5269
    -1.5106  -1.4888  -1.4753  -1.4427  -1.4377  -1.4114  -1.4103  -1.3929
    -1.3861  -1.3455  -1.3360  -1.2401  -1.2371  -1.2225  -1.1493  -0.9896
    -0.9762  -0.9741  -0.9049  -0.9040  -0.8893  -0.8412  -0.8386  -0.8324
    -0.8260  -0.8185  -0.7953  -0.7930  -0.7042  -0.6995  -0.6552  -0.6503
    -0.6476  -0.6280  -0.6176

          k = 0.0465-0.0000 0.0000 ( 86511 PWs)   bands (ev):

   -79.3261 -79.3154 -79.3128 -79.2868 -79.2840 -79.2747 -79.2700 -79.2667
   -79.2641 -79.2624 -79.2621 -79.2538 -79.2524 -79.2500 -79.2488 -79.2453
   -79.2446 -79.2387 -79.2361 -79.2354 -79.2337 -79.2325 -79.2313 -79.2273
   -79.2271 -79.2261 -79.2257 -79.2240 -79.2217 -79.2206 -79.2187 -79.2163
   -47.4485 -47.4278 -47.4273 -47.4135 -47.4132 -47.3988 -47.3847 -47.3828
   -47.3797 -47.3791 -47.3669 -47.3665 -47.3536 -47.3533 -47.3425 -47.3408
   -47.3358 -47.3134 -47.3130 -47.3050 -47.2794 -47.2675 -47.2642 -47.2180
   -47.2173 -47.2043 -47.2037 -47.1931 -47.1785 -47.1687 -47.1658 -47.1581
   -47.1573 -47.1049 -47.0859 -47.0853 -47.0768 -47.0757 -47.0681 -47.0551
   -47.0535 -47.0492 -47.0486 -47.0371 -47.0368 -47.0326 -47.0311 -47.0252
   -47.0110 -47.0080 -47.0066 -47.0056 -46.9908 -46.9881 -46.9875 -46.9811
   -46.9790 -46.9788 -46.9712 -46.9704 -46.9668 -46.9652 -46.9579 -46.9574
   -46.9565 -46.9443 -46.9433 -46.9381 -46.9309 -46.9303 -46.9300 -46.9282
   -46.9218 -46.9213 -46.9137 -46.8985 -46.8860 -46.8730 -46.8697 -46.8693
   -46.8556 -46.8520 -46.8516 -46.8471 -46.8361 -46.8338 -46.8297 -46.8273
   -46.8217 -46.8199 -46.8139 -46.8068 -46.8054 -46.8026 -46.8015 -46.7986
   -23.9597 -23.2987 -22.1988 -21.7553 -21.4522 -21.2970 -21.0887 -20.5057
   -15.3201 -14.2850 -12.6943 -11.5920 -11.1142  -9.8885  -9.3770  -8.6647
    -8.4699  -8.2399  -8.1419  -7.6312  -7.5156  -7.0959  -6.9127  -6.7719
    -6.5780  -6.5164  -6.2994  -6.2866  -6.1008  -5.8836  -5.8830  -5.8701
    -5.7254  -5.7199  -5.7188  -5.6750  -5.5423  -5.5389  -5.5337  -5.5301
    -5.4917  -5.4670  -5.4643  -5.4274  -5.4262  -5.3709  -5.3634  -5.3625
    -5.3424  -5.3417  -5.2670  -5.2366  -5.2186  -5.2143  -5.1896  -5.1701
    -5.1681  -5.0198  -5.0189  -5.0107  -5.0092  -5.0045  -4.9754  -4.9729
    -4.9660  -4.9648  -4.8333  -4.8320  -4.7079  -4.6668  -4.5704  -4.4842
    -4.4538  -4.4494  -4.4464  -4.1615  -4.0522  -3.9188  -3.9079  -3.9024
    -3.8898  -3.8829  -3.7931  -3.7881  -3.7850  -3.7768  -3.7300  -3.7258
    -3.6878  -3.6845  -3.6811  -3.6582  -3.6485  -3.6411  -3.6369  -3.6175
    -3.5501  -3.5388  -3.5297  -3.5091  -3.4914  -3.4647  -3.4515  -3.4486
    -3.4390  -3.3528  -3.3131  -3.2783  -3.2754  -3.1538  -3.1453  -3.0693
    -3.0417  -3.0198  -2.9923  -2.9886  -2.8966  -2.8713  -2.8668  -2.7915
    -2.7429  -2.7187  -2.6701  -2.6682  -2.6402  -2.6358  -2.6228  -2.6201
    -2.5976  -2.5882  -2.5868  -2.4915  -2.4813  -2.4772  -2.4645  -2.4594
    -2.4566  -2.4187  -2.3826  -2.3795  -2.3364  -2.2136  -2.1982  -2.1950
    -2.0457  -2.0393  -2.0096  -2.0061  -1.9521  -1.9425  -1.9181  -1.8904
    -1.8714  -1.8137  -1.6932  -1.6808  -1.6339  -1.6030  -1.5547  -1.5224
    -1.5116  -1.4850  -1.4807  -1.4420  -1.4372  -1.4109  -1.4102  -1.3907
    -1.3872  -1.3463  -1.3369  -1.2412  -1.2368  -1.2206  -1.1495  -0.9895
    -0.9760  -0.9738  -0.9051  -0.9036  -0.8890  -0.8452  -0.8402  -0.8325
    -0.8246  -0.8169  -0.7955  -0.7930  -0.7023  -0.7013  -0.6552  -0.6500
    -0.6476  -0.6246  -0.6190

     the Fermi energy is    -0.8202 ev

!    total energy              =  -15381.71368364 Ry
     Harris-Foulkes estimate   =  -15381.71368407 Ry
     estimated scf accuracy    <       0.00000035 Ry

     The total energy is the sum of the following terms:

     one-electron contribution =  -77116.88089799 Ry
     hartree contribution      =   38564.82819832 Ry
     xc contribution           =   -1033.47452399 Ry
     ewald contribution        =   32087.31509942 Ry
     one-center paw contrib.   =   -7883.35776040 Ry
     smearing contrib. (-TS)   =      -0.14379901 Ry

     convergence has been achieved in  25 iterations

     Forces acting on atoms (Ry/au):


     negative rho (up, down):  6.656E-02 0.000E+00
     atom    1 type  1   force =    -0.00006646    0.00099760    0.01267643
     atom    2 type  1   force =     0.00022928   -0.00054551   -0.01348082
     atom    3 type  1   force =    -0.00007536    0.00004158    0.01346717
     atom    4 type  1   force =    -0.00008525    0.00017931   -0.01354051
     atom    5 type  1   force =     0.00017020   -0.00024354    0.01321970
     atom    6 type  1   force =     0.00004815    0.00015496   -0.01362208
     atom    7 type  1   force =     0.00025315   -0.00018634    0.01380362
     atom    8 type  1   force =    -0.00000602    0.00022842   -0.01306857
     atom    9 type  1   force =    -0.00050852   -0.00019544    0.01322106
     atom   10 type  1   force =     0.00077178   -0.00091367   -0.01624629
     atom   11 type  1   force =    -0.00035014   -0.00000377    0.01353857
     atom   12 type  1   force =    -0.00083992   -0.00091452   -0.01421812
     atom   13 type  1   force =    -0.00028976   -0.00025530    0.01379291
     atom   14 type  1   force =    -0.00168083   -0.00034954   -0.01469022
     atom   15 type  1   force =    -0.00002438   -0.00013619    0.01358774
     atom   16 type  1   force =    -0.00029132    0.00016163   -0.01309911
     atom   17 type  1   force =     0.00069999   -0.00038145    0.01309414
     atom   18 type  1   force =    -0.00052996   -0.00001972   -0.01343197
     atom   19 type  1   force =     0.00018976    0.00071771    0.01289974
     atom   20 type  1   force =     0.00076713   -0.00142915   -0.01455019
     atom   21 type  1   force =     0.00052150    0.00002176    0.01324140
     atom   22 type  1   force =    -0.00111216   -0.00213234   -0.01451169
     atom   23 type  1   force =     0.00004968    0.00035021    0.01368112
     atom   24 type  1   force =    -0.00026550    0.00127174   -0.01229658
     atom   25 type  1   force =    -0.00000798    0.00015660    0.01361278
     atom   26 type  1   force =     0.00016157   -0.00016337   -0.01344050
     atom   27 type  1   force =     0.00025449    0.00007151    0.01384738
     atom   28 type  1   force =     0.00000013    0.00016681   -0.01340999
     atom   29 type  1   force =     0.00001933   -0.00025654    0.01249132
     atom   30 type  1   force =     0.00255438    0.00008843   -0.01535935
     atom   31 type  1   force =    -0.00028797   -0.00055051    0.01375727
     atom   32 type  1   force =     0.00104869    0.00175782   -0.01408364
     atom   33 type  2   force =     0.00143374    0.00746183    0.00032783
     atom   34 type  2   force =    -0.01763272    0.01106075    0.01377989
     atom   35 type  2   force =    -0.00676422   -0.01499980   -0.00984228
     atom   36 type  2   force =     0.00152358   -0.02158912    0.03422164
     atom   37 type  2   force =     0.02671153   -0.02950898   -0.01582003
     atom   38 type  2   force =    -0.00464606   -0.03157083    0.00884289
     atom   39 type  2   force =     0.04014515   -0.05986480    0.00548290
     atom   40 type  2   force =    -0.04356873    0.10765414    0.00358121
     atom   41 type  3   force =     0.02616827   -0.00361882   -0.00061371
     atom   42 type  3   force =    -0.03557399    0.03688337    0.03869290
     atom   43 type  3   force =    -0.02157795   -0.02725358   -0.00873345
     atom   44 type  3   force =     0.00882560   -0.03778832   -0.05067036
     atom   45 type  3   force =    -0.05555093    0.08320864   -0.00328273
     atom   46 type  3   force =     0.04255067   -0.09174474   -0.00317260
     atom   47 type  4   force =    -0.00494954    0.00760677    0.00570864
     atom   48 type  4   force =     0.01894495   -0.01410063   -0.02180329
     atom   49 type  4   force =     0.01162145   -0.00283246    0.00853880
     atom   50 type  4   force =     0.00950708    0.01816649    0.01731592
     atom   51 type  4   force =    -0.00541744   -0.00713078   -0.00218716
     atom   52 type  4   force =     0.01825296   -0.02123366   -0.01402514
     atom   53 type  4   force =     0.01018934    0.02030833    0.00476425
     atom   54 type  4   force =    -0.01075712    0.03206820   -0.01358470
     atom   55 type  4   force =    -0.01450755    0.01835207    0.01924908
     atom   56 type  4   force =     0.00375422    0.02277674   -0.00765322

     Total force =     0.259476     Total SCF correction =     0.002422
 !ASE

     Writing output data file calc.save
     Check: negative starting charge=   -0.057945
     NEW-OLD atomic charge density approx. for the potential

     Check: negative/imaginary core charge=   -0.000001    0.000000
     Check: negative starting charge=   -0.057956

     negative rho (up, down):  6.667E-02 0.000E+00

     total cpu time spent up to now is    85348.5 secs

     per-process dynamical memory:   648.5 Mb

     Self-consistent Calculation

     iteration #  1     ecut=    40.42 Ry     beta=0.15
     Davidson diagonalization with overlap
     c_bands:  2 eigenvalues not converged
